ITEM: TIMESTEP
1500
ITEM: NUMBER OF ATOMS
1200
ITEM: BOX BOUNDS pp pp pp
-7.6266250050336382e-02 2.5098596345622489e+01
-7.6266250050336382e-02 2.5098596345622489e+01
-2.5251128845723162e+01 5.0273458941295317e+01
ITEM: ATOMS id type xs ys zs
760 1 0.0541347 0.145218 0.392791
419 1 0.23798 0.15677 0.370652
108 1 0.219374 0.0573506 0.360116
96 1 0.0381676 0.0451753 0.383632
635 5 0.23949 0.220037 0.337993
1076 1 0.183871 0.126413 0.339032
1193 1 0.101767 0.117463 0.363562
580 5 0.142607 0.198561 0.354626
269 2 0.0281433 0.243215 0.330387
638 5 0.14139 0.143845 0.31342
390 2 0.0827777 0.0945645 0.382635
645 3 0.153327 0.078447 0.352719
967 1 0.08047 0.222416 0.321431
542 1 0.13804 0.0735958 0.392102
804 1 0.232133 0.01892 0.392587
1149 3 0.245143 0.118152 0.35259
787 1 0.40571 0.241717 0.357174
314 1 0.454354 0.188504 0.389262
590 2 0.485629 0.244429 0.385266
559 1 0.432523 0.0441981 0.356389
973 5 0.413434 0.145247 0.344099
468 2 0.399841 0.155746 0.393185
1174 1 0.298945 0.136238 0.341104
1037 1 0.384055 0.115637 0.377368
432 5 0.329265 0.194486 0.367348
196 2 0.39225 0.0528948 0.373202
762 1 0.120058 0.0168748 0.355404
465 1 0.33215 0.0288664 0.369758
907 1 0.416718 0.0238343 0.390816
624 3 0.49761 0.0182017 0.356422
614 1 0.00187059 0.199182 0.345905
26 5 0.259741 0.450003 0.335039
577 2 0.0997413 0.469094 0.365187
82 1 0.192427 0.292392 0.353676
1173 1 0.0613557 0.322328 0.391729
40 5 0.111607 0.357212 0.332573
813 1 0.0361453 0.45796 0.368771
403 5 0.140839 0.355573 0.379997
1071 1 0.234685 0.35659 0.378959
834 1 0.124434 0.475755 0.38592
418 1 0.0273149 0.303189 0.337156
915 1 0.122956 0.415505 0.355269
904 5 0.0277737 0.354861 0.363144
456 1 0.469448 0.332003 0.349583
917 2 0.4432 0.488422 0.391827
935 2 0.431437 0.283455 0.343174
893 5 0.322791 0.286439 0.395658
460 1 0.351151 0.446589 0.348031
1053 1 0.277819 0.359527 0.346677
565 5 0.297231 0.437377 0.378758
346 2 0.24229 0.321943 0.361382
703 2 0.402845 0.47353 0.354996
241 1 0.445545 0.294926 0.385215
373 1 0.398396 0.47211 0.377064
1171 1 0.458994 0.444668 0.349003
409 1 0.468095 0.390903 0.378489
1159 2 0.418798 0.35292 0.3836
412 2 0.334899 0.330935 0.351542
628 1 0.376299 0.314972 0.336091
660 1 0.297245 0.284421 0.362485
151 1 0.372796 0.355496 0.367879
690 3 0.495048 0.390346 0.357516
793 3 0.262808 0.0111925 0.372319
929 1 0.473709 0.244207 0.333051
1146 5 0.0393708 0.228693 0.374158
290 1 0.355498 0.198623 0.398148
397 2 0.0255609 0.223608 0.475069
885 5 0.181516 0.219103 0.476466
1185 5 0.12026 0.119601 0.485432
88 1 0.025877 0.160404 0.479813
28 1 0.216312 0.123997 0.495683
62 5 0.240903 0.0419931 0.447049
953 5 0.0741902 0.0417184 0.427613
1060 5 0.121157 0.229584 0.43749
137 5 0.166229 0.117586 0.441776
377 2 0.0412191 0.169519 0.412291
537 1 0.219051 0.0915557 0.417543
15 5 0.0600209 0.0855849 0.45769
353 1 0.0464975 0.236184 0.411052
1024 1 0.0861456 0.14531 0.425958
1070 2 0.188208 0.0506025 0.405035
20 1 0.14123 0.0342704 0.454766
786 2 0.000670584 0.459789 0.597321
1054 5 0.0161776 0.342945 0.463484
472 1 0.249453 0.0333014 0.480196
75 1 0.317521 0.10198 0.496672
375 2 0.263634 0.0942528 0.484911
206 1 0.265462 0.22091 0.492706
407 1 0.47914 0.222192 0.499861
247 5 0.420164 0.0941932 0.475727
378 2 0.461083 0.0242598 0.44665
516 1 0.457579 0.0910693 0.443994
406 1 0.479479 0.18437 0.427882
91 1 0.413536 0.120108 0.411572
920 2 0.46343 0.120941 0.425119
211 5 0.346202 0.0478024 0.410192
858 1 0.288149 0.180889 0.43592
443 2 0.316966 0.139088 0.448572
14 1 0.332109 0.0837241 0.439378
322 5 0.369083 0.243662 0.42633
968 1 0.275892 0.123117 0.465635
72 1 0.364564 0.171381 0.45851
32 5 0.302199 0.248793 0.462614
922 5 0.370583 0.212581 0.487571
706 1 0.422984 0.486203 0.563044
545 2 0.223663 0.00854656 0.524219
372 1 0.356422 0.328016 0.592868
977 1 0.280114 0.270905 0.523515
851 1 0.416216 0.490807 0.454122
1017 1 0.0824399 0.246435 0.46757
535 1 0.281202 0.422496 0.531145
69 2 0.216931 0.207112 0.598636
779 5 0.142349 0.457455 0.472642
227 1 0.447682 0.286705 0.581762
242 1 0.00334473 0.264026 0.490998
754 1 0.0241669 0.449204 0.471038
78 5 0.149482 0.305098 0.477842
34 1 0.245296 0.423327 0.481777
663 1 0.107471 0.371389 0.460004
1079 5 0.230905 0.421286 0.409349
435 1 0.175146 0.309653 0.44517
871 3 0.00335621 0.435492 0.492013
208 1 0.217697 0.486182 0.441761
827 1 0.0831505 0.321531 0.427718
689 2 0.126585 0.351658 0.440373
722 1 0.0910384 0.473316 0.44343
1128 2 0.0299909 0.466521 0.45037
249 2 0.0828698 0.288759 0.408519
265 1 0.154055 0.397133 0.427726
741 5 0.0786139 0.436107 0.414147
188 5 0.215254 0.333819 0.413166
382 5 0.220998 0.244037 0.427237
533 1 0.144207 0.270997 0.406758
998 1 0.386066 0.358998 0.402517
102 5 0.483831 0.359998 0.450769
1078 1 0.385424 0.404676 0.472061
564 2 0.382888 0.358982 0.487509
139 5 0.262962 0.326165 0.494112
547 1 0.311777 0.486547 0.500001
561 1 0.362982 0.304019 0.479665
256 2 0.261119 0.483591 0.486967
447 2 0.484351 0.412978 0.494637
4 1 0.443228 0.361423 0.495502
204 1 0.45509 0.465862 0.500587
608 1 0.460524 0.464216 0.409978
696 5 0.423707 0.25185 0.463485
996 1 0.459037 0.28956 0.429868
1039 5 0.235863 0.386906 0.449639
109 1 0.304212 0.343192 0.424293
694 1 0.318129 0.454339 0.449452
494 2 0.353041 0.383682 0.419261
308 1 0.391678 0.399119 0.436466
633 1 0.329051 0.436622 0.410683
410 2 0.379245 0.437348 0.453165
340 1 0.379673 0.477086 0.594789
966 1 0.383914 0.43681 0.532642
784 2 0.432836 0.465199 0.542794
309 5 0.266918 0.156369 0.40114
550 1 0.134847 0.113923 0.519791
574 5 0.0446191 0.12428 0.509374
1155 1 0.119882 0.212002 0.503668
520 2 0.197709 0.125274 0.516469
811 1 0.226853 0.0736472 0.52543
643 1 0.223829 0.179621 0.523812
785 1 0.1075 0.0838937 0.582077
857 1 0.204323 0.0520845 0.580516
303 1 0.484021 0.425598 0.542449
114 2 0.239095 0.0113137 0.592955
1089 1 0.0116957 0.0686253 0.592425
1006 1 0.0539215 0.125487 0.545298
738 3 0.0775191 0.218107 0.591212
647 2 0.167635 0.104902 0.576509
192 1 0.163939 0.11635 0.554866
632 1 0.0264185 0.171821 0.586541
897 2 0.0636856 0.037878 0.584656
826 3 0.112437 0.0958695 0.54109
680 1 0.107734 0.0264411 0.542114
548 1 0.18921 0.156625 0.587073
803 5 0.21021 0.199541 0.555155
219 1 0.11557 0.230869 0.572188
10 1 0.268311 0.231755 0.587764
991 5 0.334763 0.117956 0.588591
100 2 0.337697 0.400072 0.524737
479 1 0.457668 0.00833624 0.425685
296 1 0.0694222 0.0168821 0.499565
23 1 0.34975 0.0841957 0.530272
298 2 0.270221 0.214207 0.513838
101 1 0.323565 0.180238 0.519262
854 2 0.352134 0.12303 0.513839
470 2 0.45642 0.18177 0.515413
413 1 0.424733 0.219401 0.529479
684 1 0.482892 0.0144215 0.522617
833 1 0.412009 0.139755 0.508002
81 1 0.419165 0.018563 0.59064
961 2 0.44511 0.0780116 0.588228
900 3 0.430547 0.224233 0.590061
945 5 0.473812 0.171737 0.554191
42 1 0.489437 0.186713 0.585016
1161 1 0.425107 0.0996025 0.569119
1066 5 0.370293 0.163895 0.548899
596 1 0.289374 0.161861 0.564511
1199 2 0.311643 0.218194 0.571877
220 1 0.301538 0.0148907 0.587271
646 5 0.266986 0.0763208 0.552697
837 5 0.363047 0.0143493 0.55444
438 1 0.370736 0.206151 0.579403
1117 5 0.111093 0.36047 0.589696
518 1 0.0549344 0.279638 0.595374
1001 2 0.129554 0.262771 0.515952
92 1 0.0759659 0.303429 0.51211
916 1 0.0443238 0.466322 0.508971
605 1 0.179328 0.297703 0.51021
424 2 0.014019 0.308995 0.505794
798 5 0.201747 0.395229 0.508197
1013 1 0.344155 0.379162 0.504008
317 3 0.225758 0.459832 0.583807
611 1 0.241997 0.338368 0.548406
215 1 0.198707 0.414125 0.56935
367 5 0.0555641 0.380061 0.531019
366 1 0.0487461 0.295868 0.552534
759 1 0.148254 0.324708 0.561925
231 2 0.108633 0.274273 0.556704
153 1 0.131054 0.249979 0.537674
395 5 0.364001 0.0132729 0.510275
127 1 0.155956 0.398886 0.537941
352 1 0.066227 0.46419 0.59788
174 2 0.188311 0.370149 0.553894
439 5 0.117315 0.467644 0.556246
364 1 0.000402165 0.368161 0.499041
652 5 0.411405 0.281372 0.55009
342 5 0.139885 0.489259 0.519557
1099 1 0.412555 0.375878 0.567558
348 5 0.498135 0.335204 0.559152
812 2 0.415344 0.343133 0.585661
1118 1 0.282265 0.428975 0.593432
943 5 0.474746 0.315911 0.520951
1057 1 0.311324 0.264127 0.55704
1194 5 0.315505 0.407469 0.562778
861 1 0.489781 0.485223 0.59399
105 2 0.293487 0.306164 0.541376
1105 1 0.342664 0.342228 0.536126
257 3 0.00533913 0.00365333 0.490548
487 5 0.494004 0.0578767 0.551534
976 5 0.496579 0.373337 0.418088
130 5 0.00545055 0.348227 0.579763
640 1 0.0468637 0.00578704 0.566851
930 2 0.49653 0.0207833 0.501439
1059 1 0.00708905 0.489903 0.400497
877 1 0.442942 0.0018301 0.49098
86 1 0.410882 0.00209777 0.458253
952 2 0.432433 0.498445 0.583938
123 1 0.25124 0.167765 0.64874
610 1 0.248503 0.175825 0.614616
1131 5 0.169669 0.0168712 0.668662
142 1 0.178429 0.127691 0.672437
711 5 0.106353 0.0886348 0.619617
700 1 0.1519 0.151205 0.639075
359 1 0.22019 0.0697983 0.646488
1126 1 0.104324 0.194117 0.611825
47 2 0.115009 0.20075 0.63289
94 1 0.0585046 0.198739 0.642611
230 2 0.199199 0.130272 0.652703
1108 5 0.0240576 0.010662 0.625315
986 1 0.231203 0.0281587 0.613906
524 1 0.495739 0.310273 0.622724
162 1 0.011988 0.112419 0.62921
1094 2 0.262933 0.0451525 0.632123
1072 1 0.438151 0.158669 0.640653
753 1 0.470356 0.0579442 0.636897
209 1 0.431789 0.223296 0.613154
255 1 0.344125 0.193009 0.631275
365 1 0.300081 0.098161 0.627736
111 2 0.406906 0.21068 0.632345
651 2 0.288027 0.162657 0.631238
415 1 0.425339 0.113423 0.604649
525 2 0.470922 0.367873 0.622563
1042 2 0.487499 0.118759 0.635794
1085 2 0.119045 0.485804 0.608287
344 1 0.442151 0.372671 0.603042
458 1 0.149812 0.25506 0.636266
51 1 0.158626 0.393255 0.653205
343 1 0.242699 0.302112 0.63338
1114 2 0.18447 0.295911 0.624298
1145 1 0.0692146 0.359798 0.640121
1183 5 0.202263 0.313373 0.660603
870 1 0.158473 0.354225 0.621244
631 1 0.117709 0.451498 0.62716
1069 2 0.123016 0.391756 0.635385
639 5 0.234366 0.44085 0.650204
551 1 0.190639 0.262252 0.605722
909 5 0.0195394 0.348064 0.667574
1000 1 0.33437 0.40457 0.655613
54 1 0.385175 0.495307 0.643479
71 2 0.373479 0.429024 0.641535
999 1 0.417377 0.259529 0.645434
31 5 0.342905 0.324132 0.624972
607 2 0.323795 0.463981 0.605277
202 5 0.334071 0.307053 0.65903
956 1 0.340663 0.430577 0.622645
1150 1 0.425575 0.39521 0.636862
50 5 0.111616 0.496944 0.668473
558 5 0.270179 0.333021 0.603764
136 5 0.00114612 0.312279 0.620535
1140 2 0.000614163 0.171299 0.6371
556 1 0.175629 0.471556 0.600001
370 1 0.110726 0.522334 0.355369
388 1 0.229766 0.742033 0.389026
1136 1 0.178144 0.74102 0.359868
575 1 0.22785 0.508441 0.394124
1062 5 0.474231 0.791699 0.398116
1101 1 0.153691 0.575232 0.383501
763 1 0.0685 0.751928 0.354566
708 1 0.112342 0.6501 0.358722
85 1 0.0466293 0.577082 0.375225
839 2 0.115229 0.716082 0.363545
572 2 0.163752 0.52242 0.395213
1144 3 0.108639 0.584147 0.365176
422 5 0.00114895 0.706184 0.37048
1135 1 0.109229 0.718147 0.386279
429 5 0.203814 0.651064 0.382978
734 5 0.311819 0.68197 0.381032
919 1 0.418048 0.546621 0.398299
1033 1 0.408725 0.640363 0.342204
1064 1 0.484585 0.592586 0.361405
918 1 0.402009 0.538332 0.351079
715 2 0.420176 0.597834 0.357545
579 1 0.387209 0.614282 0.375032
124 2 0.399936 0.606673 0.396876
668 5 0.443198 0.654112 0.313463
985 5 0.316319 0.52379 0.398709
9 1 0.496303 0.505107 0.379495
1122 1 0.253434 0.946357 0.365471
1088 2 0.208801 0.906805 0.371701
286 1 0.224923 0.844136 0.369515
797 1 0.193295 0.914156 0.39411
89 1 0.156648 0.920891 0.359202
750 5 0.299109 0.855505 0.347855
416 1 0.0491887 0.935558 0.353349
6 5 0.0339248 0.838152 0.35666
519 2 0.103538 0.958863 0.36182
747 1 0.10566 0.957952 0.384325
853 5 0.138253 0.816508 0.397252
679 1 0.295646 0.896496 0.39307
404 1 0.294583 0.761041 0.361585
1186 1 0.484011 0.948172 0.359602
697 5 0.370963 0.941584 0.377006
758 1 0.438061 0.87123 0.379958
52 5 0.347235 0.826496 0.384438
176 5 0.400095 0.735898 0.354095
500 5 0.465359 0.961127 0.327105
634 2 0.491338 0.906557 0.375866
84 3 0.230722 0.774136 0.368775
914 1 0.49678 0.944753 0.392763
1007 1 0.186422 0.61653 0.479478
12 5 0.0888555 0.730971 0.477624
1157 1 0.0932265 0.642883 0.46288
844 2 0.23774 0.753331 0.48763
531 1 0.222479 0.729214 0.426386
718 1 0.248846 0.633506 0.41975
620 2 0.200449 0.669456 0.427277
135 1 0.188083 0.655028 0.447431
1058 1 0.145405 0.665155 0.415452
670 1 0.147986 0.559057 0.452686
444 1 0.140927 0.522101 0.415277
445 3 0.148857 0.5039 0.437012
994 5 0.0385273 0.614428 0.437524
446 1 0.0422743 0.674934 0.411
1137 2 0.0991435 0.701905 0.407171
1169 2 0.152565 0.618582 0.461229
221 2 0.286322 0.811995 0.578522
11 1 0.173872 0.747802 0.491006
462 5 0.49661 0.613614 0.527561
1112 3 0.210018 0.581954 0.498297
310 5 0.282773 0.90786 0.544056
739 5 0.0650115 0.564657 0.405663
45 1 0.209114 0.512099 0.495462
1083 1 0.332637 0.63264 0.475289
213 5 0.366691 0.535722 0.478696
1002 1 0.270997 0.521444 0.469104
1018 2 0.311428 0.648554 0.4951
349 1 0.275342 0.702688 0.494307
1197 2 0.449079 0.74925 0.466909
749 1 0.400993 0.703833 0.465322
554 5 0.447764 0.658467 0.48918
238 1 0.482357 0.558444 0.431599
501 5 0.467615 0.661631 0.432181
499 1 0.408643 0.732521 0.428436
528 1 0.412973 0.603722 0.455129
1049 3 0.452632 0.550082 0.452378
1031 1 0.33516 0.654891 0.440587
789 1 0.302958 0.555663 0.43708
562 1 0.319242 0.74926 0.408576
847 1 0.34499 0.614233 0.408537
911 2 0.308292 0.614095 0.426736
740 2 0.276864 0.505399 0.448104
1038 2 0.370647 0.650681 0.458864
1156 3 0.250563 0.763793 0.408989
637 1 0.156557 0.999336 0.412952
426 1 0.0726302 0.855709 0.472289
1087 1 0.135547 0.96363 0.481434
167 5 0.153301 0.86094 0.490548
374 1 0.245533 0.909812 0.486749
705 2 0.236282 0.915598 0.446122
603 1 0.244526 0.922087 0.424788
475 5 0.0257379 0.910947 0.428745
823 5 0.174351 0.783215 0.446704
180 5 0.0912545 0.868063 0.442151
35 1 0.101181 0.754723 0.42013
594 1 0.176213 0.932973 0.451478
988 2 0.130682 0.97296 0.459756
252 1 0.0115688 0.936299 0.487095
892 1 0.0736794 0.959542 0.450993
997 5 0.0342772 0.788638 0.443446
334 1 0.110342 0.895727 0.412675
434 1 0.257221 0.807418 0.498447
234 3 0.362294 0.983597 0.592072
592 1 0.371349 0.842692 0.537017
70 2 0.0168484 0.875732 0.480934
474 1 0.170344 0.994845 0.512866
815 2 0.1389 0.943718 0.402636
183 2 0.245278 0.890881 0.405915
941 1 0.345884 0.965245 0.483023
764 1 0.337096 0.836061 0.470624
881 1 0.257698 0.764154 0.467282
1015 3 0.275809 0.967329 0.479838
294 1 0.431288 0.909612 0.474407
293 1 0.455289 0.764553 0.487888
1111 1 0.0869141 0.993118 0.597924
874 2 0.406411 0.968392 0.476598
140 1 0.3865 0.828312 0.417011
699 1 0.393039 0.935621 0.411398
958 3 0.395961 0.861529 0.462564
325 1 0.43554 0.805796 0.458232
277 1 0.472472 0.879501 0.426216
898 3 0.445051 0.97831 0.404996
356 2 0.409061 0.886513 0.423791
1034 1 0.379334 0.893359 0.442958
226 1 0.272777 0.957798 0.456464
138 1 0.325496 0.785912 0.439783
513 2 0.293737 0.807858 0.456726
980 5 0.337791 0.987033 0.434351
144 2 0.360476 0.770764 0.423095
942 1 0.249942 0.853786 0.451221
386 1 0.235318 0.829544 0.411327
318 1 0.00549827 0.831242 0.497009
1189 5 0.138462 0.68584 0.510687
549 1 0.058338 0.663141 0.528245
1147 5 0.077798 0.597835 0.506205
665 2 0.0102059 0.706657 0.52854
657 1 0.168323 0.589148 0.516715
618 5 0.255903 0.511394 0.528728
655 5 0.233131 0.647957 0.531173
120 1 0.226136 0.608497 0.564588
910 5 0.13846 0.632423 0.542158
182 1 0.141686 0.543899 0.573958
39 1 0.0633221 0.523615 0.537926
616 1 0.031183 0.632035 0.579475
506 1 0.141884 0.640713 0.583579
1142 5 0.0411421 0.540505 0.570914
820 2 0.0803581 0.667219 0.587119
751 1 0.159519 0.718339 0.5547
145 1 0.0783672 0.723172 0.576788
1061 2 0.182015 0.588794 0.579564
7 1 0.0103004 0.732976 0.508281
544 1 0.217386 0.579078 0.597541
1180 5 0.372067 0.747233 0.596826
307 2 0.372344 0.697091 0.524869
678 1 0.36171 0.658477 0.508043
568 5 0.351503 0.556091 0.51937
168 1 0.275417 0.600313 0.503158
978 2 0.462522 0.523811 0.508708
283 1 0.402813 0.748497 0.516587
387 1 0.427385 0.565613 0.498703
581 1 0.417919 0.667518 0.537381
902 1 0.410123 0.665554 0.57155
181 1 0.426964 0.563762 0.585184
1170 2 0.440184 0.697232 0.555735
541 5 0.404153 0.582848 0.551474
281 1 0.308702 0.572136 0.546397
79 1 0.315058 0.704515 0.533467
1 1 0.322128 0.593151 0.580545
143 1 0.256716 0.512398 0.571368
1028 3 0.384779 0.616915 0.585448
534 2 0.281227 0.571096 0.566183
886 5 0.251945 0.704024 0.559255
268 1 0.44883 0.518963 0.530319
1023 1 0.280689 0.856094 0.594614
862 1 0.012547 0.980502 0.533611
949 5 0.0174749 0.880719 0.525809
490 5 0.133644 0.833314 0.52641
1050 1 0.0986968 0.919492 0.511534
170 1 0.0169097 0.985137 0.411763
576 2 0.118806 0.974649 0.501917
246 1 0.218986 0.877451 0.519559
702 1 0.0162347 0.755959 0.541903
841 5 0.256833 0.789364 0.532784
1116 1 0.224831 0.946316 0.592415
1141 1 0.224746 0.985959 0.544395
262 1 0.159039 0.770197 0.587281
727 3 0.0704384 0.867738 0.565479
860 2 0.0616017 0.982051 0.547249
451 5 0.158104 0.97327 0.565518
405 1 0.079816 0.887944 0.587503
765 1 0.112488 0.816923 0.56086
399 5 0.182617 0.889127 0.549891
376 1 0.0855482 0.923488 0.551902
482 1 0.00934786 0.848181 0.557321
567 2 0.129818 0.757107 0.56865
816 1 0.246747 0.823552 0.562121
1115 1 0.276998 0.755481 0.587365
1113 1 0.492835 0.8036 0.521031
1011 2 0.260996 0.871347 0.503035
1184 1 0.318888 0.88276 0.510565
495 1 0.398596 0.93562 0.526768
1093 2 0.376645 0.880206 0.518787
41 1 0.275012 0.990371 0.51272
511 1 0.415855 0.847934 0.505713
83 2 0.443947 0.789688 0.507415
368 2 0.392818 0.81687 0.55582
414 1 0.452643 0.9635 0.556403
719 3 0.460506 0.957523 0.534245
1095 1 0.46129 0.772798 0.588376
315 1 0.418098 0.758028 0.553134
484 1 0.432269 0.864351 0.562361
450 2 0.430259 0.923561 0.571252
360 1 0.453851 0.913838 0.591553
731 1 0.346984 0.815352 0.570956
905 1 0.367492 0.938055 0.574775
598 1 0.450745 0.642672 0.400945
361 5 0.0155353 0.597444 0.546926
685 2 0.0177507 0.505092 0.523707
173 1 0.000286451 0.522998 0.448801
913 5 0.104057 0.685905 0.654881
68 1 0.223872 0.557772 0.631865
852 2 0.253688 0.697411 0.663179
908 1 0.3497 0.899286 0.641018
329 1 0.238434 0.643528 0.652419
950 2 0.194194 0.597801 0.64622
710 1 0.227322 0.748787 0.653285
1166 1 0.226892 0.691961 0.682781
627 1 0.0585436 0.594484 0.669721
819 1 0.0802338 0.65616 0.608568
1020 1 0.029066 0.740713 0.636648
609 2 0.0934656 0.60653 0.62138
704 1 0.173736 0.566535 0.663556
891 1 0.109369 0.551081 0.61094
455 1 0.147972 0.621043 0.633053
955 1 0.0448413 0.595565 0.635193
393 5 0.140533 0.622247 0.685141
906 2 0.0202471 0.571762 0.654038
1104 1 0.0234398 0.507614 0.654927
99 2 0.497238 0.931601 0.606682
282 5 0.478525 0.623045 0.610437
459 1 0.0334071 0.721415 0.671209
437 5 0.297993 0.632998 0.695645
483 1 0.46511 0.541311 0.62664
1008 1 0.422205 0.725037 0.649378
1191 1 0.483109 0.740851 0.620333
1074 2 0.418724 0.551606 0.642614
106 1 0.44666 0.567116 0.660622
119 1 0.388349 0.65611 0.606054
125 1 0.318611 0.691471 0.666283
1125 2 0.25743 0.569749 0.613651
186 2 0.35842 0.723981 0.652571
923 1 0.295167 0.622273 0.616004
733 1 0.296818 0.520641 0.610279
927 1 0.337669 0.70113 0.633336
363 1 0.379755 0.59992 0.635386
129 2 0.352398 0.645525 0.623276
521 1 0.182607 0.8541 0.604736
132 1 0.339051 0.785452 0.656186
867 5 0.381806 0.861782 0.600933
1103 2 0.467461 0.994685 0.642265
937 3 0.224588 0.908303 0.646098
442 2 0.235965 0.892589 0.604671
1167 2 0.219283 0.79463 0.638138
588 1 0.189807 0.765352 0.62109
653 1 0.240813 0.916159 0.624061
80 1 0.177634 0.840459 0.642395
712 1 0.0943134 0.796249 0.613336
1067 2 0.155033 0.798364 0.606457
502 2 0.0060994 0.861595 0.647139
802 2 0.0342182 0.782148 0.619353
244 3 0.126539 0.892073 0.640488
324 1 0.163533 0.942346 0.64876
1124 2 0.0678556 0.932087 0.603243
1003 1 0.067939 0.873063 0.651559
60 1 0.0985626 0.915198 0.621273
345 1 0.00916953 0.838381 0.626693
1123 1 0.356484 0.961208 0.613976
205 5 0.33386 0.903221 0.676474
104 5 0.196469 0.809285 0.677387
177 3 0.338735 0.830701 0.639377
217 1 0.275429 0.818593 0.63121
960 1 0.253668 0.881727 0.663813
1110 2 0.353661 0.96089 0.635624
1014 1 0.404655 0.983776 0.646972
1106 1 0.396838 0.801374 0.627805
338 1 0.491596 0.802649 0.647186
838 1 0.4718 0.956411 0.624373
491 2 0.448607 0.769038 0.636257
1046 1 0.00303985 0.941709 0.602143
440 5 0.217977 0.690572 0.601548
931 1 0.301479 0.997658 0.639063
285 1 0.703703 0.150606 0.386619
725 1 0.640121 0.063646 0.366878
464 1 0.704124 0.128706 0.345257
1178 2 0.704194 0.205311 0.376328
1092 2 0.69455 0.0703141 0.35487
810 1 0.746029 0.0637231 0.368127
1016 5 0.56368 0.141487 0.37095
321 1 0.538469 0.0457089 0.373446
934 1 0.515769 0.237956 0.366283
1148 2 0.598713 0.0292385 0.379997
757 1 0.518554 0.156261 0.343688
328 2 0.523406 0.219658 0.345296
688 1 0.690089 0.234664 0.334356
845 1 0.541731 0.0169773 0.338414
984 1 0.649876 0.220602 0.365772
121 5 0.586441 0.0970197 0.329449
267 1 0.583888 0.240649 0.339958
799 2 0.74537 0.309328 0.394941
903 1 0.698792 0.0221173 0.33999
807 5 0.587994 0.408251 0.328002
1026 1 0.751842 0.208829 0.362624
517 5 0.714061 0.0614791 0.39826
1073 2 0.809471 0.0660168 0.371842
818 2 0.844828 0.124413 0.335058
330 1 0.903858 0.153695 0.334283
540 5 0.836255 0.181763 0.383577
957 1 0.936417 0.0431665 0.398145
992 5 0.926583 0.0651166 0.365826
288 2 0.943514 0.20484 0.336197
1068 1 0.800179 0.172211 0.332497
990 1 0.840709 0.100539 0.356128
107 1 0.842424 0.073745 0.322452
585 3 0.737435 0.187901 0.340231
389 1 0.970507 0.234196 0.318603
341 1 0.939866 0.432366 0.381754
1163 1 0.815655 0.0921628 0.391902
1045 1 0.828863 0.315486 0.355305
159 2 0.990017 0.00841274 0.394109
555 1 0.757201 0.391885 0.34611
497 5 0.704763 0.417177 0.318153
1032 1 0.836022 0.00605663 0.370334
940 1 0.593738 0.332163 0.383373
729 1 0.637372 0.319151 0.352496
16 2 0.640448 0.257178 0.347112
396 1 0.747915 0.464068 0.380077
254 2 0.682325 0.463786 0.380037
77 1 0.656533 0.410353 0.372088
774 1 0.56379 0.39016 0.357345
1192 2 0.615249 0.362034 0.366456
428 1 0.644181 0.490489 0.332553
477 5 0.957553 0.365348 0.330855
840 1 0.605901 0.0554536 0.399934
732 2 0.812477 0.456252 0.38363
676 1 0.749579 0.345342 0.377258
692 2 0.788315 0.363279 0.361167
745 3 0.901431 0.406197 0.363357
1010 1 0.889846 0.273739 0.381694
1096 1 0.713575 0.254005 0.390115
436 1 0.904353 0.444551 0.344582
299 1 0.921572 0.34382 0.359618
1200 1 0.833908 0.407236 0.370889
261 1 0.907437 0.244461 0.348424
947 2 0.886993 0.29339 0.361336
686 2 0.984814 0.480577 0.380204
835 1 0.956929 0.00419276 0.344829
921 5 0.948749 0.0583372 0.318824
822 5 0.60671 0.250653 0.397753
1019 5 0.54409 0.107131 0.466912
1030 2 0.532641 0.252114 0.489691
146 1 0.565173 0.20238 0.480761
691 1 0.621955 0.124296 0.491404
713 1 0.643926 0.0214978 0.498975
613 2 0.627241 0.179569 0.480046
179 1 0.673712 0.212175 0.490126
469 5 0.730138 0.0475616 0.481044
783 1 0.664793 0.0648809 0.455874
2 1 0.611492 0.111487 0.430139
454 1 0.64136 0.164477 0.459361
401 5 0.730245 0.2121 0.455884
128 5 0.599322 0.0124165 0.467211
489 1 0.712244 0.13165 0.433745
864 2 0.658943 0.119748 0.444572
795 5 0.666961 0.192647 0.41485
3 2 0.57973 0.102523 0.412193
30 1 0.517381 0.0946913 0.415795
115 1 0.518504 0.251878 0.404135
664 1 0.647818 0.496612 0.434051
1077 3 0.505697 0.496668 0.422956
736 5 0.825601 0.035837 0.593383
1175 1 0.588746 0.158699 0.401536
770 1 0.514622 0.0100064 0.457243
693 5 0.763663 0.236497 0.49764
478 1 0.779338 0.132607 0.474749
682 5 0.946346 0.117841 0.492677
253 5 0.888384 0.0389187 0.468194
622 2 0.833821 0.167549 0.47509
493 5 0.896675 0.122486 0.411094
116 1 0.853093 0.176516 0.495629
199 5 0.852689 0.018951 0.410471
683 1 0.98511 0.230714 0.458533
782 1 0.823444 0.227273 0.46783
582 5 0.921143 0.192176 0.438705
1179 5 0.962026 0.11383 0.451306
522 5 0.776105 0.1716 0.413998
214 1 0.871057 0.222278 0.411785
829 1 0.879929 0.135294 0.465193
95 5 0.775168 0.0768624 0.44893
672 1 0.748239 0.256157 0.426715
737 2 0.771589 0.380999 0.586988
218 5 0.585277 0.370497 0.471662
1052 5 0.694475 0.315552 0.483326
1168 5 0.719614 0.445724 0.490576
546 2 0.602202 0.295662 0.441143
721 5 0.60436 0.392471 0.410048
593 3 0.660344 0.4805 0.455789
433 1 0.723499 0.341663 0.445719
312 1 0.649307 0.285293 0.426879
1004 2 0.754387 0.392456 0.453349
44 2 0.709114 0.307351 0.428352
57 1 0.62688 0.289231 0.460721
37 1 0.716274 0.34184 0.41068
669 1 0.708115 0.434611 0.458811
767 1 0.599102 0.475252 0.467062
586 1 0.576021 0.354197 0.438332
536 1 0.521499 0.464977 0.442243
1133 1 0.554988 0.254377 0.436651
863 2 0.535359 0.476473 0.463145
591 5 0.980159 0.37762 0.406343
1044 1 0.584503 0.0156449 0.568441
880 1 0.509167 0.427283 0.475126
687 1 0.506919 0.0811154 0.494077
1091 1 0.789094 0.376256 0.470228
761 3 0.84289 0.374662 0.48512
476 5 0.904669 0.27305 0.482833
357 2 0.880606 0.490506 0.495487
263 1 0.893591 0.3587 0.471275
1138 1 0.943754 0.469103 0.496973
735 1 0.844953 0.435985 0.49493
636 1 0.865869 0.48821 0.431065
674 1 0.817396 0.438373 0.404526
64 2 0.810353 0.461772 0.423754
131 1 0.905485 0.319474 0.414683
1021 5 0.843845 0.299226 0.446846
1190 5 0.909274 0.415736 0.415019
1035 5 0.911224 0.441589 0.456682
103 1 0.793818 0.415885 0.438049
649 1 0.659256 0.468488 0.400119
467 2 0.868732 0.280991 0.402468
604 5 0.970869 0.293465 0.436039
1121 2 0.566528 0.138153 0.530497
801 1 0.565376 0.493965 0.551281
164 1 0.590976 0.0814231 0.522945
58 1 0.689468 0.0993971 0.516655
901 2 0.634687 0.0816804 0.507195
304 1 0.601376 0.190326 0.523993
1041 1 0.565812 0.13621 0.552206
936 1 0.705157 0.0332943 0.589921
1139 1 0.65896 0.107498 0.565328
53 1 0.695604 0.140902 0.595763
626 2 0.611178 0.15045 0.566923
210 5 0.735534 0.0663 0.543232
339 2 0.701781 0.0917046 0.58119
43 5 0.701988 0.20083 0.528901
369 1 0.635382 0.208324 0.560891
971 1 0.686323 0.246682 0.590198
830 1 0.586124 0.151511 0.587149
350 2 0.557862 0.030569 0.588034
250 2 0.535119 0.169619 0.599899
1195 1 0.510023 0.0730356 0.586785
394 1 0.986528 0.0377099 0.471358
1154 5 0.772851 0.126273 0.507218
515 5 0.875782 0.100698 0.517419
408 1 0.968902 0.114889 0.526167
384 5 0.904057 0.224551 0.519196
224 1 0.806734 0.0405172 0.519963
1198 1 0.791359 0.180334 0.550711
157 1 0.912024 0.0415538 0.580573
1005 1 0.85271 0.0955816 0.557437
332 1 0.96438 0.121354 0.563359
1187 2 0.890017 0.0418001 0.560519
809 2 0.982301 0.122011 0.584581
118 2 0.810387 0.138567 0.565296
147 1 0.922197 0.0256668 0.542453
570 1 0.935173 0.14786 0.596739
200 2 0.990944 0.140758 0.544557
273 1 0.826691 0.170146 0.583281
228 1 0.759911 0.0994321 0.570938
297 1 0.808773 0.301344 0.400198
794 1 0.953006 0.0114924 0.507073
677 1 0.980809 0.20456 0.544932
1109 1 0.504443 0.153783 0.525984
73 2 0.592865 0.255398 0.52594
152 1 0.627569 0.367353 0.599013
895 1 0.535998 0.396191 0.506303
427 2 0.595759 0.410217 0.513744
509 1 0.590909 0.399345 0.53489
878 1 0.56472 0.276812 0.507106
924 1 0.606615 0.472413 0.509792
235 1 0.646655 0.289997 0.527407
279 1 0.643565 0.376465 0.504453
899 1 0.7326 0.495465 0.514451
948 3 0.6859 0.342242 0.520468
431 2 0.691584 0.469029 0.586473
379 2 0.72059 0.464974 0.533405
720 1 0.737778 0.27083 0.558215
890 1 0.737548 0.432955 0.595827
831 2 0.622607 0.375897 0.577545
98 1 0.728789 0.335674 0.583325
203 2 0.692451 0.285727 0.572567
716 1 0.70678 0.40187 0.532287
391 1 0.662484 0.425804 0.573651
351 1 0.641754 0.322873 0.567835
189 1 0.779487 0.472572 0.544304
1119 3 0.549022 0.424879 0.551024
1056 1 0.547874 0.261423 0.541191
850 1 0.564112 0.391669 0.570667
1081 5 0.558239 0.258135 0.574685
172 1 0.671517 0.494899 0.54301
869 3 0.987211 0.272693 0.545374
612 1 0.748452 0.323712 0.513516
884 1 0.820134 0.278164 0.533668
843 5 0.909926 0.401674 0.518669
488 1 0.980507 0.296931 0.523664
825 2 0.809473 0.3294 0.52118
133 1 0.84644 0.329321 0.503444
18 1 0.794436 0.397718 0.567021
982 3 0.803375 0.249949 0.553954
1102 1 0.880515 0.445221 0.556242
769 1 0.841078 0.278229 0.570133
291 1 0.904352 0.350665 0.586414
1158 1 0.929943 0.249857 0.588351
623 1 0.987099 0.4545 0.575874
1100 2 0.822745 0.424195 0.549495
946 1 0.934501 0.296765 0.557359
742 2 0.900869 0.292597 0.575803
266 1 0.977025 0.470129 0.536541
529 1 0.825184 0.380715 0.53344
530 3 0.946428 0.470248 0.557257
726 1 0.838373 0.00773728 0.443652
746 1 0.985088 0.151678 0.419796
466 1 0.515119 0.293964 0.475062
392 1 0.996123 0.424158 0.43871
944 1 0.647399 0.494406 0.599911
557 2 0.501523 0.244311 0.424419
300 2 0.563561 0.185089 0.655335
1043 1 0.626707 0.19129 0.656368
788 1 0.73306 0.165402 0.649709
354 2 0.697962 0.2006 0.605324
441 2 0.633231 0.0104246 0.619503
748 1 0.667769 0.199836 0.624223
875 1 0.603161 0.0411963 0.603261
1152 1 0.662586 0.0496685 0.633046
122 5 0.714741 0.0554428 0.661118
656 2 0.683076 0.205579 0.645334
539 1 0.531587 0.132563 0.651548
1025 1 0.522397 0.138565 0.618522
240 1 0.550511 0.230464 0.607416
601 1 0.544707 0.234008 0.643186
448 5 0.73662 0.0978723 0.624018
615 1 0.940002 0.00758272 0.638077
932 1 0.8166 0.0553155 0.654638
56 1 0.817612 0.367075 0.601315
33 5 0.855167 0.136795 0.646863
383 1 0.957059 0.162173 0.653018
93 1 0.971887 0.210764 0.621664
666 1 0.867246 0.21159 0.611973
975 5 0.912276 0.056119 0.613549
335 1 0.825998 0.114689 0.613096
292 2 0.819056 0.173343 0.605112
1151 1 0.76189 0.199605 0.609875
337 5 0.968013 0.462423 0.636605
507 2 0.929656 0.209119 0.605354
355 1 0.736795 0.376548 0.650309
46 5 0.845161 0.0489835 0.682075
223 1 0.627691 0.402208 0.633769
933 2 0.640262 0.349955 0.620189
642 2 0.730022 0.438043 0.642355
527 1 0.70342 0.33259 0.62221
457 2 0.735365 0.317928 0.640843
771 1 0.699194 0.267183 0.647489
1130 2 0.571757 0.436185 0.636711
641 1 0.548773 0.446813 0.655514
463 2 0.54351 0.26894 0.62496
1009 1 0.597762 0.306323 0.626577
193 1 0.525155 0.40264 0.625232
471 1 0.68951 0.486362 0.64268
430 5 0.798196 0.279839 0.601507
1182 5 0.900985 0.213852 0.670492
1080 2 0.884941 0.378375 0.604928
972 1 0.876741 0.436288 0.613948
1040 1 0.88619 0.289066 0.654697
963 1 0.853555 0.387909 0.64431
569 1 0.797348 0.304612 0.636957
65 1 0.895268 0.331379 0.62089
1132 2 0.844225 0.446209 0.632835
887 2 0.859853 0.324608 0.639837