ITEM: TIMESTEP
800
ITEM: NUMBER OF ATOMS
1200
ITEM: BOX BOUNDS pp pp pp
-7.6266250050336382e-02 2.5098596345622489e+01
-7.6266250050336382e-02 2.5098596345622489e+01
-2.5251128845723162e+01 5.0273458941295317e+01
ITEM: ATOMS id type xs ys zs
760 1 0.0673578 0.126368 0.393304
1149 3 0.23759 0.107792 0.354221
419 1 0.216702 0.146417 0.37186
108 1 0.222294 0.0409587 0.359636
456 1 0.482712 0.339422 0.347272
96 1 0.042834 0.0293555 0.383467
635 5 0.247174 0.190888 0.327104
1076 1 0.187992 0.102609 0.337581
1193 1 0.111201 0.0845696 0.362161
580 5 0.123357 0.190826 0.373616
269 2 0.0217383 0.244554 0.345883
638 5 0.124559 0.167748 0.327191
390 2 0.0903655 0.0724788 0.382186
645 3 0.158671 0.0500389 0.350549
967 1 0.0803474 0.222289 0.347332
917 2 0.434235 0.492354 0.388534
26 5 0.162144 0.395081 0.328408
542 1 0.142011 0.0565847 0.394225
935 2 0.457755 0.286282 0.338753
787 1 0.425358 0.244953 0.351622
893 5 0.364905 0.255263 0.377664
314 1 0.44267 0.188147 0.386406
590 2 0.487797 0.235505 0.383739
577 2 0.101669 0.465727 0.364993
460 1 0.353291 0.467072 0.340747
559 1 0.430691 0.0301812 0.353376
1053 1 0.30986 0.360668 0.337445
973 5 0.403884 0.142049 0.339291
565 5 0.299773 0.429257 0.376967
468 2 0.395682 0.143165 0.392067
1174 1 0.298053 0.122172 0.346358
1037 1 0.390603 0.0979511 0.376967
432 5 0.297593 0.192147 0.368783
196 2 0.393647 0.0363931 0.370468
82 1 0.21105 0.305258 0.339001
346 2 0.265675 0.323183 0.348709
624 3 0.498185 0.0029882 0.352953
1173 1 0.0816325 0.314238 0.395044
40 5 0.124985 0.315406 0.348308
804 1 0.238735 0.00575709 0.391426
813 1 0.0391644 0.4645 0.371759
403 5 0.173972 0.355606 0.384919
465 1 0.333687 0.0167766 0.368607
1071 1 0.253567 0.346077 0.368447
834 1 0.141342 0.474794 0.383518
418 1 0.0208546 0.30882 0.344478
915 1 0.125212 0.41297 0.355853
703 2 0.406897 0.477026 0.35234
241 1 0.457927 0.294417 0.381614
907 1 0.421451 0.0024925 0.38685
373 1 0.396259 0.465572 0.373208
1171 1 0.45757 0.447592 0.345181
409 1 0.475296 0.397554 0.37596
1159 2 0.430438 0.353664 0.378837
412 2 0.359201 0.322129 0.343993
628 1 0.401494 0.307798 0.329436
660 1 0.313375 0.275788 0.350676
151 1 0.383589 0.348957 0.362421
904 5 0.0101724 0.363192 0.371588
998 1 0.401249 0.359809 0.398351
290 1 0.342804 0.178392 0.395085
1146 5 0.00776767 0.251616 0.388646
640 1 0.040037 0.00221926 0.569867
397 2 0.0360159 0.225188 0.471588
885 5 0.179387 0.201757 0.479597
1185 5 0.0725376 0.0898822 0.49223
88 1 0.0283448 0.169334 0.481712
28 1 0.213862 0.10879 0.49222
62 5 0.249639 0.0317264 0.447399
953 5 0.0876932 0.0253424 0.426918
102 5 0.489205 0.355146 0.444608
1060 5 0.161189 0.21193 0.440647
137 5 0.179058 0.107346 0.443661
377 2 0.052858 0.157822 0.41182
537 1 0.214899 0.0628276 0.418738
15 5 0.0770699 0.0717794 0.459894
353 1 0.0769073 0.217073 0.408681
1017 1 0.0945091 0.230035 0.463026
1024 1 0.0830409 0.127515 0.427794
472 1 0.255858 0.0164894 0.480534
75 1 0.317681 0.091567 0.497038
375 2 0.266833 0.0784648 0.484168
206 1 0.258345 0.237072 0.49619
407 1 0.485917 0.216174 0.495477
296 1 0.0697957 0.000884845 0.503639
247 5 0.416996 0.111151 0.473978
378 2 0.464331 0.0179684 0.445012
516 1 0.459392 0.0838744 0.44433
406 1 0.468654 0.181952 0.430933
91 1 0.418553 0.115987 0.409844
1054 5 0.0164147 0.340774 0.459745
920 2 0.461571 0.119854 0.426008
211 5 0.329868 0.0269668 0.406566
858 1 0.267178 0.169456 0.437804
443 2 0.313129 0.132396 0.446733
14 1 0.329904 0.0797342 0.435325
322 5 0.370595 0.230114 0.423267
968 1 0.285134 0.108386 0.465138
1117 5 0.0867533 0.368428 0.592159
72 1 0.362614 0.172353 0.451788
32 5 0.286196 0.248462 0.462991
364 1 0.0166696 0.374557 0.497884
779 5 0.148093 0.451575 0.466699
871 3 0.0231041 0.442326 0.492417
242 1 0.0299626 0.274325 0.486586
754 1 0.0486491 0.457119 0.471253
78 5 0.140614 0.300637 0.47861
34 1 0.2468 0.42424 0.478807
1099 1 0.381096 0.377184 0.567682
663 1 0.117485 0.366275 0.455589
188 5 0.247804 0.3284 0.401874
1079 5 0.234697 0.44581 0.415527
991 5 0.332368 0.124324 0.594872
435 1 0.199942 0.298444 0.449852
392 1 0.00823088 0.423933 0.441215
591 5 0.0194658 0.360596 0.416407
827 1 0.108375 0.294706 0.429018
689 2 0.150657 0.332944 0.441115
722 1 0.0923893 0.48882 0.438964
1128 2 0.0381947 0.474473 0.450156
249 2 0.109641 0.273276 0.408356
265 1 0.176298 0.37585 0.427444
741 5 0.0795829 0.442135 0.409542
348 5 0.491117 0.339113 0.559485
395 5 0.364524 0.0122297 0.510198
1078 1 0.370175 0.412885 0.469167
564 2 0.373693 0.367063 0.484036
139 5 0.252027 0.331539 0.489834
547 1 0.317719 0.485563 0.497234
561 1 0.350909 0.312825 0.475547
256 2 0.263182 0.482978 0.486608
447 2 0.48156 0.404647 0.488502
4 1 0.437234 0.358803 0.489704
204 1 0.454257 0.455911 0.498354
930 2 0.493282 0.0263721 0.499556
608 1 0.45502 0.462513 0.406009
812 2 0.389806 0.344528 0.585682
1070 2 0.190867 0.0249362 0.403781
696 5 0.424408 0.259354 0.457371
996 1 0.459675 0.285227 0.429193
208 1 0.207807 0.495203 0.442447
382 5 0.251328 0.254516 0.423109
1039 5 0.261167 0.377709 0.449383
109 1 0.325808 0.315793 0.418085
694 1 0.306667 0.459587 0.445253
494 2 0.359061 0.369235 0.414265
308 1 0.380377 0.396012 0.432934
633 1 0.314693 0.411039 0.407105
410 2 0.366568 0.438157 0.44923
550 1 0.131984 0.110744 0.518534
574 5 0.0553603 0.172027 0.511245
1155 1 0.132797 0.229795 0.504956
520 2 0.194731 0.111645 0.513194
811 1 0.225438 0.0614626 0.522227
643 1 0.219023 0.167362 0.521069
785 1 0.108773 0.0792798 0.579727
857 1 0.203688 0.0571029 0.583371
69 2 0.213323 0.213994 0.597247
114 2 0.233127 0.0114644 0.595559
342 5 0.147918 0.489143 0.524992
1089 1 0.0147503 0.0755588 0.593997
1006 1 0.0637532 0.140105 0.547458
738 3 0.0769428 0.219253 0.593403
647 2 0.16822 0.107408 0.576586
192 1 0.17051 0.11455 0.554728
632 1 0.0239725 0.174516 0.586786
897 2 0.0610055 0.037869 0.586397
826 3 0.115503 0.0981353 0.541207
680 1 0.101705 0.0322758 0.544343
548 1 0.184653 0.162229 0.587359
803 5 0.202377 0.201445 0.551949
219 1 0.11102 0.234663 0.573237
23 1 0.358084 0.0890389 0.529508
298 2 0.261718 0.213477 0.515873
101 1 0.318162 0.179826 0.516185
854 2 0.35 0.124587 0.51207
1118 1 0.276546 0.442265 0.590814
470 2 0.456884 0.181747 0.51049
413 1 0.431663 0.226772 0.523826
684 1 0.478048 0.0232825 0.520831
833 1 0.406956 0.144466 0.504189
943 5 0.475793 0.307193 0.516405
81 1 0.408956 0.0230122 0.592043
961 2 0.44394 0.0760272 0.587957
900 3 0.425145 0.231297 0.589752
945 5 0.484188 0.195145 0.550664
42 1 0.481249 0.195078 0.582655
1057 1 0.314708 0.273515 0.559313
1161 1 0.428119 0.0953206 0.568023
1066 5 0.38029 0.159692 0.551343
596 1 0.29381 0.170254 0.564766
1199 2 0.307252 0.227005 0.574433
10 1 0.254538 0.244613 0.584352
220 1 0.294496 0.00693246 0.590574
646 5 0.270979 0.090308 0.550073
837 5 0.369499 0.0232573 0.553742
438 1 0.362143 0.210209 0.584242
1001 2 0.138976 0.281051 0.517817
92 1 0.0815743 0.312957 0.515423
916 1 0.0552138 0.477756 0.509641
1194 5 0.302061 0.438794 0.559398
861 1 0.475516 0.492433 0.591609
605 1 0.185199 0.320285 0.512121
424 2 0.0271996 0.313539 0.504007
798 5 0.184759 0.416863 0.508764
558 5 0.24978 0.351487 0.593505
317 3 0.22018 0.473026 0.582108
611 1 0.232033 0.34191 0.55182
215 1 0.190835 0.420363 0.571104
367 5 0.0496485 0.391226 0.534539
105 2 0.280788 0.306917 0.544535
366 1 0.0445143 0.287397 0.552047
130 5 0.00436522 0.326459 0.579835
759 1 0.131865 0.33395 0.56308
231 2 0.1061 0.275658 0.556726
153 1 0.141486 0.26412 0.538745
786 2 0.00402724 0.462763 0.590467
1105 1 0.319062 0.34829 0.533725
127 1 0.148892 0.408351 0.539409
352 1 0.0710346 0.466548 0.593809
174 2 0.177275 0.375918 0.555559
439 5 0.102631 0.470998 0.560297
100 2 0.326292 0.403006 0.521943
922 5 0.367678 0.25445 0.499014
977 1 0.261969 0.25717 0.531747
535 1 0.272501 0.438497 0.523545
966 1 0.379061 0.432294 0.531663
1013 1 0.345087 0.381411 0.502687
372 1 0.339955 0.324003 0.596371
227 1 0.430156 0.295044 0.581973
851 1 0.403053 0.490976 0.447272
652 5 0.405223 0.305923 0.544132
309 5 0.25211 0.144375 0.406751
784 2 0.432649 0.458787 0.540064
20 1 0.153772 0.0176824 0.455198
706 1 0.422281 0.48521 0.560082
303 1 0.483234 0.416743 0.541687
340 1 0.370971 0.489192 0.590465
533 1 0.17123 0.264222 0.403993
1059 1 0.00209604 0.486692 0.402777
880 1 0.49714 0.42242 0.468495
479 1 0.468703 0.00417117 0.423902
557 2 0.499606 0.235627 0.424769
1000 1 0.329654 0.402003 0.653283
123 1 0.250658 0.170566 0.647451
610 1 0.249045 0.184561 0.613037
1094 2 0.260491 0.0503326 0.632774
50 5 0.108353 0.488678 0.656214
1131 5 0.174416 0.0307055 0.669733
142 1 0.186621 0.131027 0.673806
71 2 0.370922 0.432308 0.640019
1085 2 0.118105 0.49302 0.606508
711 5 0.0998188 0.0949846 0.616733
700 1 0.144393 0.154583 0.642844
359 1 0.217379 0.0724907 0.647654
1126 1 0.102849 0.188978 0.613867
47 2 0.108413 0.204289 0.634795
94 1 0.0471331 0.207081 0.641579
230 2 0.197816 0.134561 0.653918
1072 1 0.447575 0.166095 0.638433
753 1 0.477485 0.0590901 0.632278
999 1 0.413467 0.263777 0.644744
31 5 0.33247 0.305646 0.625518
1108 5 0.0275788 0.0298037 0.633105
209 1 0.430373 0.231423 0.612038
607 2 0.320196 0.474246 0.602911
518 1 0.0571261 0.278868 0.602065
255 1 0.344982 0.196269 0.630683
986 1 0.223184 0.0320641 0.615836
202 5 0.31196 0.310855 0.6602
365 1 0.296357 0.102022 0.625887
111 2 0.408508 0.213649 0.631584
651 2 0.288547 0.166732 0.629467
458 1 0.13823 0.260407 0.637164
51 1 0.149639 0.400836 0.651333
343 1 0.235766 0.300815 0.62962
1114 2 0.175054 0.296749 0.624363
1145 1 0.0566526 0.381339 0.636589
1183 5 0.129902 0.318103 0.666642
870 1 0.14851 0.355633 0.621113
415 1 0.423428 0.115865 0.603273
956 1 0.344972 0.446978 0.62051
344 1 0.429579 0.378557 0.600483
1042 2 0.490571 0.123393 0.631142
631 1 0.114698 0.456785 0.624493
1069 2 0.116673 0.397673 0.632959
1150 1 0.420225 0.389211 0.634311
639 5 0.235201 0.444875 0.652435
525 2 0.461743 0.37402 0.618774
551 1 0.177613 0.260138 0.605935
931 1 0.302099 0.00434882 0.639543
556 1 0.179784 0.4895 0.600277
162 1 0.0081621 0.118761 0.630793
54 1 0.384294 0.491448 0.648375
38 3 0.493401 0.490523 0.61309
524 1 0.497954 0.322317 0.620777
370 1 0.116823 0.517128 0.353043
793 3 0.268587 0.99969 0.369622
388 1 0.242612 0.73359 0.388874
1136 1 0.224138 0.732277 0.353263
575 1 0.24213 0.506929 0.388497
429 5 0.244179 0.641861 0.379922
739 5 0.114872 0.631042 0.396047
1101 1 0.164267 0.573829 0.380692
763 1 0.117898 0.737109 0.350806
404 1 0.331283 0.757184 0.366097
708 1 0.16074 0.641385 0.351574
734 5 0.411885 0.725418 0.38403
85 1 0.0616674 0.601911 0.369322
839 2 0.169299 0.701911 0.351023
815 2 0.147008 0.919026 0.399345
1144 3 0.123292 0.585121 0.360736
422 5 0.0414291 0.715656 0.370486
919 1 0.397691 0.540845 0.395415
1186 1 0.495669 0.937988 0.359689
1033 1 0.410472 0.647774 0.340199
697 5 0.374132 0.93079 0.375697
1064 1 0.478595 0.60578 0.36348
918 1 0.412602 0.542148 0.350078
758 1 0.438918 0.866634 0.378845
715 2 0.416865 0.604032 0.355171
52 5 0.362857 0.824122 0.389143
176 5 0.405594 0.739929 0.347435
579 1 0.379125 0.6161 0.374106
124 2 0.38768 0.605486 0.395516
668 5 0.282896 0.520021 0.36097
807 5 0.363433 0.502867 0.31024
1122 1 0.258997 0.936044 0.360985
1088 2 0.224603 0.889048 0.369324
286 1 0.250188 0.83017 0.369342
797 1 0.207588 0.895703 0.391571
993 5 0.0139387 0.849242 0.398921
89 1 0.166907 0.891474 0.359541
634 2 0.495732 0.894779 0.375586
84 3 0.266593 0.762641 0.369017
762 1 0.131641 0.986803 0.349171
416 1 0.060339 0.904587 0.356629
6 5 0.0654785 0.809034 0.370518
519 2 0.116579 0.934394 0.359602
500 5 0.479373 0.997973 0.308645
750 5 0.331526 0.875374 0.346101
747 1 0.124565 0.946686 0.381489
9 1 0.485674 0.515799 0.378429
572 2 0.180006 0.520405 0.391923
1135 1 0.0960961 0.73469 0.398865
679 1 0.306938 0.913105 0.394334
969 1 0.49871 0.753492 0.367698
1007 1 0.184929 0.604765 0.479522
12 5 0.080429 0.743994 0.474738
1157 1 0.0923881 0.645935 0.469782
844 2 0.235963 0.742663 0.48552
531 1 0.22358 0.73539 0.42443
718 1 0.240196 0.634812 0.425179
620 2 0.197868 0.680322 0.431712
135 1 0.186323 0.674634 0.452996
1180 5 0.371757 0.744087 0.599451
1058 1 0.139031 0.674357 0.422485
670 1 0.146694 0.582447 0.447504
444 1 0.159785 0.528529 0.412393
445 3 0.150649 0.524486 0.435278
994 5 0.0199153 0.566498 0.419805
637 1 0.160964 0.97106 0.411907
446 1 0.0339415 0.691342 0.423585
1137 2 0.0897524 0.717528 0.419808
1169 2 0.150984 0.627979 0.463105
1083 1 0.331292 0.628557 0.474597
213 5 0.368546 0.531047 0.475054
1002 1 0.267618 0.521635 0.468873
1018 2 0.305265 0.64039 0.49388
349 1 0.263762 0.690191 0.492868
1197 2 0.451614 0.742856 0.467962
749 1 0.40299 0.697889 0.468844
554 5 0.447841 0.652236 0.495526
238 1 0.475194 0.54811 0.428376
501 5 0.4816 0.65344 0.433284
499 1 0.419973 0.719811 0.434189
528 1 0.415751 0.600692 0.456422
1049 3 0.447786 0.542791 0.449488
1031 1 0.333429 0.649665 0.441315
789 1 0.297434 0.557696 0.435861
562 1 0.337201 0.733715 0.41023
173 1 0.00187023 0.527916 0.45072
361 5 0.0106246 0.613924 0.544456
847 1 0.333387 0.61416 0.406775
911 2 0.30176 0.615587 0.425667
740 2 0.268062 0.511304 0.447687
1038 2 0.372211 0.649368 0.458898
426 1 0.0621724 0.847201 0.471478
1087 1 0.132089 0.951571 0.481186
11 1 0.172601 0.741871 0.485141
167 5 0.147491 0.851843 0.489309
862 1 0.0131976 0.973228 0.537481
374 1 0.240495 0.895265 0.487887
949 5 0.00966614 0.874339 0.523129
705 2 0.237459 0.899998 0.445515
183 2 0.260494 0.886978 0.405382
603 1 0.250932 0.911583 0.424831
475 5 0.0283911 0.911203 0.423851
823 5 0.17324 0.782994 0.456002
180 5 0.108468 0.858239 0.439872
35 1 0.107448 0.764602 0.433253
594 1 0.17739 0.913319 0.451518
988 2 0.134657 0.957662 0.459696
257 3 0.00594314 0.997401 0.495046
892 1 0.0767061 0.945883 0.450657
997 5 0.0290009 0.784769 0.446998
334 1 0.111656 0.871529 0.406441
941 1 0.347372 0.958886 0.483291
764 1 0.333124 0.830404 0.471082
881 1 0.261306 0.756191 0.466809
1015 3 0.278497 0.951765 0.480071
434 1 0.249367 0.792878 0.498347
294 1 0.431202 0.902237 0.473417
293 1 0.46196 0.762632 0.488979
952 2 0.423078 0.50701 0.580232
874 2 0.407968 0.961982 0.475644
252 1 0.00236349 0.932745 0.4859
140 1 0.401258 0.814426 0.418402
699 1 0.406069 0.925473 0.413959
958 3 0.396344 0.854335 0.463916
325 1 0.432767 0.798219 0.45919
277 1 0.477309 0.876521 0.433451
398 5 0.00515701 0.63936 0.453639
898 3 0.451798 0.966922 0.404231
356 2 0.415928 0.873402 0.426799
1034 1 0.37471 0.878978 0.443505
226 1 0.275607 0.936815 0.457373
138 1 0.332437 0.770353 0.441848
1156 3 0.271501 0.753066 0.40898
513 2 0.296791 0.799482 0.456823
980 5 0.337282 0.973472 0.436804
86 1 0.414594 0.992863 0.456419
144 2 0.374894 0.756671 0.426345
942 1 0.253145 0.839169 0.448282
1189 5 0.13645 0.690071 0.509889
549 1 0.0632269 0.669811 0.527415
1147 5 0.0863068 0.590299 0.49916
665 2 0.0171258 0.714473 0.525753
657 1 0.174603 0.588514 0.517322
1112 3 0.206111 0.575654 0.497888
618 5 0.243371 0.528006 0.530567
655 5 0.232468 0.652456 0.532126
120 1 0.22452 0.616525 0.562427
910 5 0.120208 0.609961 0.541821
182 1 0.153788 0.540985 0.571289
39 1 0.0619198 0.532821 0.539536
616 1 0.0236869 0.646387 0.574388
506 1 0.130798 0.636625 0.579868
1142 5 0.0498473 0.548533 0.572424
820 2 0.0764812 0.668623 0.584273
751 1 0.178093 0.736045 0.556478
145 1 0.086596 0.728431 0.575909
1061 2 0.179005 0.596597 0.57703
307 2 0.365435 0.703771 0.524457
678 1 0.350574 0.664192 0.507663
568 5 0.344532 0.539464 0.518479
168 1 0.2714 0.591933 0.502073
386 1 0.26647 0.822707 0.407803
978 2 0.457637 0.516883 0.506351
283 1 0.400266 0.750793 0.515939
387 1 0.424351 0.560965 0.496322
581 1 0.407887 0.675322 0.538741
902 1 0.408417 0.681961 0.573335
181 1 0.420037 0.571251 0.578552
1170 2 0.437164 0.706239 0.555534
541 5 0.408509 0.584944 0.548205
281 1 0.313381 0.578618 0.546271
79 1 0.313013 0.715642 0.535663
1 1 0.319626 0.608281 0.579216
143 1 0.256369 0.521842 0.56851
1028 3 0.387662 0.627041 0.585193
534 2 0.279865 0.581807 0.564024
886 5 0.26398 0.720763 0.56493
490 5 0.111865 0.822195 0.528256
1050 1 0.0936244 0.898561 0.509583
474 1 0.167642 0.9788 0.513587
7 1 0.0175648 0.741234 0.50563
576 2 0.115981 0.95634 0.502448
545 2 0.222025 0.995842 0.524153
246 1 0.210105 0.860084 0.520223
702 1 0.0282918 0.764407 0.539165
841 5 0.242828 0.783836 0.536745
1116 1 0.212637 0.950388 0.594392
1141 1 0.222623 0.978887 0.544689
268 1 0.44547 0.510815 0.527744
262 1 0.168144 0.764869 0.590897
727 3 0.0814269 0.876891 0.567926
860 2 0.064173 0.983821 0.550118
451 5 0.164966 0.971215 0.569759
405 1 0.0857945 0.898423 0.589061
765 1 0.124032 0.822616 0.566116
399 5 0.182126 0.880465 0.549112
376 1 0.0961508 0.930382 0.554187
482 1 0.0210629 0.852874 0.560396
877 1 0.443325 0.994804 0.489837
567 2 0.141653 0.76234 0.570942
1011 2 0.252566 0.854735 0.504494
1184 1 0.312162 0.868546 0.511326
495 1 0.398904 0.934954 0.523523
1093 2 0.371764 0.878202 0.518163
41 1 0.275173 0.973915 0.514893
1113 1 0.490725 0.806662 0.521081
511 1 0.412767 0.847593 0.505379
83 2 0.442489 0.790722 0.507042
368 2 0.395171 0.826106 0.556147
414 1 0.453395 0.972248 0.55394
719 3 0.45844 0.963537 0.530655
1095 1 0.451967 0.786089 0.589123
315 1 0.423169 0.768889 0.553028
484 1 0.438177 0.872779 0.560406
450 2 0.432703 0.931401 0.569113
360 1 0.460848 0.930811 0.588348
731 1 0.349584 0.829105 0.571711
905 1 0.371621 0.943874 0.574128
1115 1 0.284662 0.772639 0.590875
310 5 0.294003 0.915587 0.547387
816 1 0.246071 0.833791 0.564798
221 2 0.289743 0.828806 0.580244
592 1 0.367189 0.84611 0.537694
1023 1 0.284989 0.875265 0.595588
234 3 0.359016 0.97775 0.59345
70 2 0.00686763 0.873272 0.477367
544 1 0.216921 0.596116 0.595698
685 2 0.0220248 0.514652 0.523899
853 5 0.165096 0.788004 0.406477
45 1 0.210105 0.505388 0.496582
985 5 0.355002 0.500182 0.419475
598 1 0.4382 0.637503 0.403247
170 1 0.00574001 0.99509 0.413282
913 5 0.102767 0.665559 0.6649
68 1 0.215736 0.570151 0.630273
852 2 0.250216 0.696039 0.664827
440 5 0.241424 0.704375 0.604287
329 1 0.222143 0.656653 0.650315
950 2 0.184406 0.605797 0.64549
710 1 0.229408 0.756542 0.658148
1123 1 0.360698 0.9537 0.61529
1166 1 0.22979 0.678766 0.684068
627 1 0.0595577 0.574106 0.665377
521 1 0.186365 0.853641 0.606328
1046 1 0.00520739 0.935975 0.604815
205 5 0.276626 0.976368 0.683288
819 1 0.071525 0.657584 0.606322
1020 1 0.0245545 0.728356 0.637297
609 2 0.082516 0.61071 0.621605
704 1 0.179747 0.57021 0.66287
891 1 0.102182 0.554218 0.610442
455 1 0.129929 0.62516 0.635444
955 1 0.029501 0.595 0.633055
437 5 0.284292 0.589404 0.686263
483 1 0.456962 0.530528 0.627321
1008 1 0.430179 0.731421 0.653603
104 5 0.28764 0.809259 0.684478
177 3 0.339249 0.835876 0.642082
1191 1 0.478702 0.755384 0.621907
1074 2 0.416424 0.547086 0.644132
106 1 0.449982 0.568324 0.660669
393 5 0.131909 0.592225 0.68893
119 1 0.393184 0.637569 0.607097
217 1 0.275098 0.824594 0.636009
125 1 0.31531 0.691435 0.664296
1125 2 0.2515 0.581043 0.613036
186 2 0.363451 0.723527 0.653653
923 1 0.292057 0.630263 0.618264
733 1 0.290952 0.530885 0.60956
927 1 0.355947 0.699944 0.633013
363 1 0.376062 0.596769 0.637925
129 2 0.355212 0.641287 0.624075
906 2 0.0100602 0.565528 0.652012
960 1 0.255814 0.896641 0.668015
937 3 0.220326 0.905881 0.648618
442 2 0.233726 0.899412 0.605907
1167 2 0.217311 0.79888 0.641921
588 1 0.190038 0.76681 0.625569
653 1 0.237779 0.920116 0.626566
1110 2 0.353651 0.965471 0.636757
80 1 0.177456 0.847983 0.644745
712 1 0.0951307 0.78634 0.615195
1067 2 0.157782 0.795171 0.609236
502 2 0.00342847 0.85229 0.648351
802 2 0.0346981 0.771281 0.620255
244 3 0.123432 0.897193 0.644726
324 1 0.166293 0.944885 0.654153
1124 2 0.0709335 0.935897 0.606058
1003 1 0.0656927 0.8707 0.652926
1111 1 0.0863197 0.996766 0.601155
1014 1 0.405266 0.992654 0.645559
60 1 0.0987162 0.915153 0.623862
1106 1 0.395338 0.808729 0.631473
99 2 0.498145 0.930074 0.605522
338 1 0.480985 0.821319 0.650644
838 1 0.476673 0.958828 0.623986
491 2 0.447976 0.778042 0.639457
132 1 0.344198 0.78685 0.658977
908 1 0.346776 0.904203 0.644375
345 1 0.00992856 0.828885 0.627741
17 2 0.496311 0.752525 0.600358
459 1 0.0180283 0.702767 0.673029
867 5 0.394595 0.863022 0.606058
236 1 0.00208431 0.749404 0.603705
1103 2 0.46827 0.999479 0.640818
285 1 0.720377 0.169909 0.392132
725 1 0.638858 0.0644758 0.369969
464 1 0.70125 0.138236 0.353068
676 1 0.758903 0.361099 0.381022
1178 2 0.737132 0.222504 0.381132
1026 1 0.782115 0.205809 0.367129
1092 2 0.693517 0.0779239 0.359641
810 1 0.742754 0.0625775 0.37243
692 2 0.782266 0.379955 0.36133
1016 5 0.557254 0.131685 0.370578
321 1 0.537487 0.037096 0.369419
934 1 0.525305 0.227848 0.365931
1148 2 0.594929 0.0263839 0.379255
757 1 0.540867 0.155943 0.340839
555 1 0.737221 0.404602 0.349576
328 2 0.545099 0.217276 0.345721
497 5 0.67122 0.388988 0.325896
614 1 0.978916 0.21426 0.360153
1073 2 0.805341 0.0555153 0.379091
745 3 0.894327 0.418571 0.360845
818 2 0.851195 0.108603 0.342953
1010 1 0.880882 0.274816 0.377653
330 1 0.90581 0.146474 0.342279
540 5 0.852746 0.188768 0.389527
957 1 0.9352 0.0195308 0.387999
992 5 0.969145 0.0412905 0.324507
288 2 0.935862 0.204365 0.343627
1068 1 0.803571 0.146826 0.335859
990 1 0.838349 0.090736 0.363478
1163 1 0.818531 0.0881826 0.396873
107 1 0.863456 0.0593207 0.329659
585 3 0.752202 0.185166 0.346094
940 1 0.582333 0.335594 0.382042
688 1 0.714225 0.239498 0.339831
729 1 0.646078 0.329803 0.352969
16 2 0.664232 0.267332 0.352075
396 1 0.74296 0.478021 0.378693
254 2 0.679454 0.464551 0.378894
845 1 0.532569 0.00817601 0.3335
77 1 0.658 0.405105 0.37772
1096 1 0.767627 0.266484 0.3933
984 1 0.685808 0.250412 0.372085
121 5 0.593392 0.0803929 0.332725
389 1 0.981941 0.220579 0.329049
267 1 0.607649 0.238303 0.346024
774 1 0.573675 0.405381 0.356769
1192 2 0.615121 0.36874 0.366949
822 5 0.608701 0.240285 0.395757
799 2 0.775452 0.330633 0.398674
436 1 0.905342 0.455013 0.342974
299 1 0.909837 0.349792 0.356434
1200 1 0.828628 0.421222 0.368819
261 1 0.889683 0.250953 0.344168
947 2 0.870934 0.297802 0.357661
686 2 0.986298 0.4853 0.381714
732 2 0.80606 0.468555 0.382049
341 1 0.934925 0.444478 0.378022
493 5 0.927756 0.110174 0.397124
1045 1 0.814633 0.32737 0.354699
690 3 0.504667 0.406142 0.354966
649 1 0.660596 0.488856 0.39822
903 1 0.692145 0.0362496 0.343574
477 5 0.953576 0.381009 0.328734
385 5 0.765203 0.0522314 0.322944
1175 1 0.594669 0.144495 0.398417
929 1 0.508361 0.252668 0.332005
428 1 0.613626 0.482019 0.330042
21 5 0.904454 0.00853985 0.358667
467 2 0.886408 0.294603 0.398619
1019 5 0.529957 0.130188 0.463335
1030 2 0.539515 0.247622 0.487707
146 1 0.581943 0.201747 0.481867
691 1 0.645272 0.124382 0.490852
713 1 0.649395 0.0235423 0.498122
613 2 0.64292 0.18006 0.47905
179 1 0.68863 0.217388 0.486653
469 5 0.732306 0.0405664 0.480558
783 1 0.679981 0.0554614 0.456343
2 1 0.619014 0.0972271 0.429832
454 1 0.652533 0.156139 0.459035
401 5 0.745941 0.202281 0.459935
128 5 0.601149 0.00522533 0.465871
489 1 0.717362 0.124561 0.432809
864 2 0.666596 0.108169 0.444839
795 5 0.665982 0.187473 0.416616
869 3 0.984994 0.271743 0.540553
3 2 0.580713 0.0956722 0.411601
30 1 0.52058 0.10288 0.418021
693 5 0.779581 0.238471 0.496363
478 1 0.795132 0.11612 0.4781
682 5 0.960166 0.115769 0.494979
253 5 0.900609 0.0353275 0.472379
622 2 0.847943 0.15352 0.479326
394 1 0.998099 0.0424621 0.477998
116 1 0.864183 0.157787 0.500417
115 1 0.515013 0.235334 0.403148
199 5 0.872675 0.00768657 0.412491
683 1 0.989685 0.238462 0.457471
782 1 0.833736 0.212933 0.472287
840 1 0.591596 0.0397209 0.400779
582 5 0.915275 0.191534 0.441149
1179 5 0.978548 0.123101 0.450715
522 5 0.78546 0.17237 0.417158
214 1 0.877176 0.248645 0.41389
829 1 0.894935 0.12979 0.467296
517 5 0.728641 0.0789502 0.404025
95 5 0.782475 0.056939 0.45041
801 1 0.566476 0.487899 0.549394
56 1 0.818748 0.373691 0.597467
466 1 0.517548 0.287696 0.472644
218 5 0.583379 0.357893 0.470746
1052 5 0.692968 0.309382 0.48095
1168 5 0.719809 0.426923 0.491021
546 2 0.598716 0.283945 0.440733
721 5 0.631178 0.372253 0.412149
593 3 0.657937 0.482018 0.455527
433 1 0.71798 0.336021 0.449299
312 1 0.653515 0.280516 0.428548
1004 2 0.750468 0.390422 0.45437
44 2 0.715491 0.298962 0.431236
57 1 0.620882 0.279458 0.460617
37 1 0.732114 0.338541 0.414799
669 1 0.709737 0.43759 0.460647
767 1 0.593592 0.461406 0.462823
586 1 0.577776 0.342646 0.435497
536 1 0.519877 0.45339 0.437053
1133 1 0.555796 0.238306 0.435172
863 2 0.531508 0.467393 0.457242
1091 1 0.783969 0.375403 0.472378
761 3 0.84971 0.367796 0.480614
476 5 0.92468 0.26312 0.482463
357 2 0.893613 0.483893 0.497547
263 1 0.88909 0.348086 0.463241
1138 1 0.957368 0.469481 0.49388
735 1 0.859561 0.433808 0.488793
636 1 0.862707 0.484419 0.432616
674 1 0.809447 0.450758 0.403293
64 2 0.80536 0.464196 0.42455
687 1 0.500295 0.084781 0.491255
131 1 0.945442 0.318789 0.401087
1021 5 0.85048 0.273668 0.448076
1190 5 0.936748 0.434792 0.417329
1035 5 0.915974 0.439582 0.457182
103 1 0.786041 0.416058 0.438235
672 1 0.754871 0.249911 0.431655
1121 2 0.565691 0.140866 0.527897
1109 1 0.504608 0.152305 0.521861
164 1 0.590505 0.0887728 0.518977
73 2 0.590618 0.259183 0.524341
58 1 0.690688 0.100287 0.52061
901 2 0.642943 0.0822545 0.506939
304 1 0.598287 0.194707 0.521753
1041 1 0.56725 0.134115 0.549598
936 1 0.713942 0.0377553 0.589365
1139 1 0.649029 0.0987673 0.568581
53 1 0.693141 0.139149 0.596015
626 2 0.608262 0.147051 0.565643
210 5 0.746833 0.0589948 0.541299
339 2 0.700825 0.0945832 0.580581
43 5 0.691321 0.199406 0.53247
369 1 0.635311 0.204826 0.561841
971 1 0.694962 0.243309 0.589774
976 5 0.509064 0.363106 0.408292
830 1 0.576409 0.156041 0.58416
350 2 0.562472 0.0248409 0.589653
250 2 0.529549 0.182186 0.596174
1195 1 0.507875 0.0574406 0.588889
604 5 0.979543 0.263209 0.425006
1154 5 0.78334 0.117695 0.511221
515 5 0.891661 0.081309 0.5189
408 1 0.983701 0.103322 0.529178
384 5 0.897286 0.217561 0.524369
224 1 0.818188 0.024221 0.523748
794 1 0.95179 0.00651891 0.51071
1198 1 0.81905 0.181147 0.552017
157 1 0.914853 0.0379557 0.58379
746 1 0.989815 0.163002 0.414887
1005 1 0.850114 0.0826154 0.561421
332 1 0.9742 0.116318 0.563824
1187 2 0.885923 0.0300719 0.56511
809 2 0.981684 0.125698 0.584819
152 1 0.627635 0.36763 0.595886
118 2 0.812563 0.133454 0.565935
147 1 0.921404 0.0135555 0.547616
570 1 0.929415 0.153384 0.593529
200 2 0.999141 0.139846 0.545682
273 1 0.822892 0.155199 0.586056
228 1 0.752375 0.108916 0.568668
895 1 0.53755 0.393058 0.498678
427 2 0.592252 0.407896 0.508904
736 5 0.816349 0.0457207 0.598067
509 1 0.583132 0.393102 0.529883
878 1 0.562833 0.278245 0.50551
924 1 0.603775 0.472045 0.507592
612 1 0.744905 0.326431 0.511972
235 1 0.646592 0.290691 0.526711
279 1 0.643618 0.375157 0.501799
899 1 0.726558 0.499554 0.511237
948 3 0.680724 0.345917 0.519036
431 2 0.687954 0.477123 0.583655
379 2 0.71807 0.469784 0.529917
720 1 0.742776 0.258749 0.558496
890 1 0.736716 0.43946 0.590226
831 2 0.62707 0.377838 0.574544
98 1 0.735823 0.333933 0.582621
203 2 0.702261 0.283898 0.573057
716 1 0.70148 0.407251 0.529963
391 1 0.656954 0.433943 0.572001
351 1 0.650053 0.321718 0.566587
944 1 0.647122 0.498677 0.59868
770 1 0.513518 0.00691166 0.457325
1119 3 0.550409 0.42453 0.547406
1056 1 0.546212 0.267403 0.53974
850 1 0.568086 0.386687 0.566991
1081 5 0.563524 0.27209 0.571315
336 1 0.87448 0.491011 0.517675
884 1 0.816813 0.275488 0.530256
843 5 0.919145 0.396497 0.51913
488 1 0.98144 0.294481 0.518417
825 2 0.807465 0.32691 0.517956
133 1 0.844002 0.327789 0.500084
18 1 0.796298 0.400003 0.563811
982 3 0.805965 0.24889 0.551303
1102 1 0.883392 0.439174 0.550842
769 1 0.843468 0.280091 0.568472
291 1 0.907592 0.354583 0.581685
1158 1 0.934914 0.253177 0.58586
623 1 0.993408 0.46659 0.569629
1100 2 0.82159 0.426541 0.545537
946 1 0.937835 0.298526 0.553615
1080 2 0.883691 0.392408 0.597063
742 2 0.906961 0.295014 0.571971
266 1 0.979646 0.47055 0.532608
529 1 0.820878 0.379261 0.529942
530 3 0.9424 0.480458 0.552075
737 2 0.772346 0.387551 0.583562
189 1 0.777171 0.471571 0.540016
1044 1 0.583369 0.00854087 0.569671
677 1 0.981378 0.201284 0.541917
498 1 0.989596 0.40419 0.598077
664 1 0.644883 0.49556 0.433748
297 1 0.838825 0.340103 0.401371
1077 3 0.502923 0.490372 0.41853
487 5 0.508627 0.0605155 0.55162
972 1 0.880522 0.454216 0.593415
300 2 0.56811 0.192783 0.649468
1043 1 0.626818 0.208881 0.653325
788 1 0.722543 0.18126 0.653358
354 2 0.704014 0.19627 0.605098
441 2 0.636145 0.0266574 0.61975
748 1 0.670904 0.210388 0.623029
875 1 0.611346 0.0495793 0.601605
1152 1 0.669146 0.064097 0.632374
122 5 0.666685 0.0921967 0.662302
46 5 0.766764 0.000490094 0.686088
656 2 0.685159 0.223667 0.644142
355 1 0.718099 0.386498 0.654134
539 1 0.538997 0.138583 0.646043
1025 1 0.521572 0.144667 0.613314
240 1 0.54954 0.241921 0.602791
601 1 0.540841 0.237755 0.637716
193 1 0.503456 0.424444 0.621929
430 5 0.793573 0.289448 0.60693
932 1 0.821309 0.0398709 0.65788
194 5 0.905016 0.0196336 0.698627
1182 5 0.903798 0.252179 0.6635
33 5 0.902619 0.0884913 0.646016
383 1 0.946149 0.179054 0.652213
93 1 0.968626 0.210864 0.619583
481 1 0.583948 0.010272 0.631777
666 1 0.866177 0.220249 0.609682
136 5 0.993512 0.318487 0.623066
975 5 0.945626 0.0538956 0.614342
335 1 0.840594 0.117045 0.619137
292 2 0.826931 0.168037 0.607463
1151 1 0.76615 0.192868 0.61098
448 5 0.762192 0.104159 0.640665
223 1 0.609369 0.408073 0.627242
933 2 0.637504 0.357448 0.616495
642 2 0.709227 0.444481 0.661168
527 1 0.698888 0.350576 0.622138
1140 2 0.990624 0.178561 0.637051
457 2 0.736424 0.337732 0.639457
771 1 0.711135 0.281768 0.646902
1040 1 0.894941 0.342752 0.652121
1130 2 0.559126 0.444562 0.632333
641 1 0.552126 0.454092 0.652964
463 2 0.546463 0.276434 0.620682
1009 1 0.603829 0.307466 0.622942
507 2 0.928009 0.212055 0.60275
337 5 0.985572 0.43224 0.628305
471 1 0.664878 0.489191 0.663953
963 1 0.848608 0.433044 0.640204
569 1 0.802339 0.34214 0.634649
65 1 0.895278 0.369056 0.617743
1132 2 0.825828 0.481836 0.649759
887 2 0.862382 0.367456 0.635853
675 1 0.766962 0.472548 0.658844
909 5 0.980633 0.422384 0.663763