ITEM: TIMESTEP
500
ITEM: NUMBER OF ATOMS
1200
ITEM: BOX BOUNDS pp pp pp
-7.6266250050336382e-02 2.5098596345622489e+01
-7.6266250050336382e-02 2.5098596345622489e+01
-2.5251128845723162e+01 5.0273458941295317e+01
ITEM: ATOMS id type xs ys zs
760 1 0.0541098 0.126135 0.390889
1149 3 0.232012 0.104256 0.348097
419 1 0.241785 0.128347 0.369332
108 1 0.209645 0.0340743 0.354197
456 1 0.467401 0.328095 0.349833
96 1 0.0219126 0.0345598 0.38707
635 5 0.295291 0.215279 0.323586
1076 1 0.166236 0.111092 0.338063
1193 1 0.0908223 0.0654346 0.361295
580 5 0.144878 0.165146 0.378923
269 2 0.0249915 0.219659 0.351825
638 5 0.116149 0.170412 0.319023
390 2 0.0740412 0.0703867 0.381349
645 3 0.147061 0.0485787 0.34767
967 1 0.0827497 0.199588 0.356674
690 3 0.488362 0.389756 0.355255
26 5 0.16237 0.351156 0.321253
542 1 0.127434 0.0625698 0.39318
935 2 0.441037 0.271346 0.344292
787 1 0.41191 0.241203 0.360721
624 3 0.497064 0.00667718 0.354273
314 1 0.453043 0.179135 0.389877
590 2 0.491343 0.227994 0.385936
577 2 0.115755 0.461595 0.363276
460 1 0.336765 0.471504 0.350011
559 1 0.429907 0.0314969 0.355547
1053 1 0.293855 0.350502 0.344202
973 5 0.353374 0.162107 0.356267
290 1 0.350143 0.180344 0.399134
468 2 0.400719 0.141877 0.394897
1174 1 0.277896 0.1191 0.333889
1037 1 0.387392 0.101115 0.378657
432 5 0.273332 0.210234 0.383843
196 2 0.386928 0.0392114 0.371356
82 1 0.204047 0.28788 0.342049
346 2 0.25124 0.311858 0.354878
793 3 0.254826 0.00201771 0.365882
1059 1 0.0320126 0.445705 0.399241
40 5 0.115782 0.302861 0.353148
804 1 0.220104 0.0110489 0.386231
813 1 0.0544483 0.462978 0.36711
403 5 0.147258 0.352363 0.383237
465 1 0.324545 0.021748 0.366406
1071 1 0.237577 0.332326 0.374386
834 1 0.146023 0.468413 0.383744
418 1 0.0186651 0.282913 0.352705
915 1 0.137274 0.405778 0.358245
703 2 0.396549 0.480612 0.356111
241 1 0.461555 0.286197 0.3855
929 1 0.486888 0.237167 0.334285
373 1 0.395731 0.484173 0.377208
1171 1 0.444057 0.441806 0.350011
409 1 0.467507 0.388279 0.379227
1159 2 0.426027 0.339904 0.383324
412 2 0.343859 0.317074 0.350991
628 1 0.382402 0.293863 0.334691
660 1 0.302022 0.267251 0.357635
151 1 0.377509 0.34133 0.368375
893 5 0.358975 0.265323 0.388729
565 5 0.275668 0.431298 0.372049
907 1 0.41142 0.00288982 0.387193
575 1 0.241685 0.491148 0.395494
686 2 0.00288577 0.468447 0.381725
296 1 0.0712486 0.00581324 0.5029
397 2 0.0337531 0.225117 0.473661
885 5 0.180474 0.19891 0.478721
1185 5 0.0568097 0.0968733 0.497812
88 1 0.0161128 0.16927 0.482546
28 1 0.213981 0.112515 0.49058
62 5 0.241565 0.0178755 0.441716
953 5 0.0830582 0.00978395 0.427981
551 1 0.175261 0.249423 0.598974
1060 5 0.143134 0.194334 0.440855
137 5 0.162842 0.0931488 0.443759
377 2 0.049566 0.147904 0.411258
537 1 0.211199 0.0649066 0.415474
15 5 0.0637041 0.0572007 0.457336
353 1 0.0846896 0.202645 0.410809
1017 1 0.095222 0.222006 0.46715
1024 1 0.0721789 0.109781 0.426949
472 1 0.257286 0.0244812 0.474724
75 1 0.315302 0.0962944 0.492621
375 2 0.264888 0.085754 0.479643
206 1 0.263804 0.23248 0.492182
407 1 0.48392 0.212569 0.493774
985 5 0.344392 0.492183 0.40713
247 5 0.433681 0.126573 0.469868
378 2 0.463188 0.0153191 0.445339
516 1 0.458645 0.0801854 0.44446
406 1 0.482446 0.174677 0.429659
91 1 0.422829 0.109799 0.412425
556 1 0.179562 0.47662 0.598507
920 2 0.472265 0.111394 0.426548
211 5 0.312787 0.0146883 0.407029
858 1 0.268925 0.170235 0.43161
443 2 0.307338 0.133194 0.443199
14 1 0.321744 0.0746237 0.435528
322 5 0.377126 0.227956 0.425943
968 1 0.272667 0.120838 0.461886
257 3 0.00816509 0.00472134 0.494346
72 1 0.360137 0.166702 0.448735
32 5 0.295437 0.234233 0.461559
364 1 0.0114853 0.375203 0.496042
779 5 0.149175 0.438347 0.467397
871 3 0.0122821 0.442325 0.491622
242 1 0.0233715 0.26733 0.4905
754 1 0.0387421 0.461813 0.47199
78 5 0.14784 0.291488 0.479416
34 1 0.253191 0.417011 0.477847
1099 1 0.395519 0.378469 0.564415
663 1 0.110799 0.351682 0.45883
188 5 0.235299 0.340796 0.405175
1079 5 0.235509 0.437969 0.422008
991 5 0.338773 0.110827 0.59527
435 1 0.196488 0.291906 0.449774
392 1 0.0134325 0.42594 0.441108
591 5 0.0150809 0.368485 0.415856
827 1 0.110187 0.28693 0.430618
689 2 0.145333 0.32669 0.443167
722 1 0.101749 0.484092 0.444005
1128 2 0.0412284 0.475054 0.450978
249 2 0.110155 0.263419 0.410919
265 1 0.169875 0.371401 0.429856
741 5 0.109142 0.424972 0.416141
344 1 0.432513 0.384743 0.597989
533 1 0.170281 0.259849 0.403465
1078 1 0.378574 0.406818 0.467413
564 2 0.378969 0.363355 0.483699
139 5 0.257529 0.325305 0.483637
547 1 0.32718 0.472713 0.496394
561 1 0.365006 0.305979 0.475998
256 2 0.270713 0.473211 0.4861
447 2 0.487807 0.408029 0.489067
4 1 0.441665 0.362573 0.490146
204 1 0.46316 0.464351 0.496864
604 5 0.0085002 0.276807 0.4297
608 1 0.459292 0.475299 0.408173
812 2 0.40313 0.347511 0.582727
1070 2 0.177758 0.0315284 0.401111
696 5 0.421724 0.257586 0.457932
996 1 0.464458 0.277286 0.428425
102 5 0.478445 0.348136 0.448671
382 5 0.248891 0.257843 0.425005
1039 5 0.272683 0.355004 0.449944
109 1 0.328013 0.315 0.428418
694 1 0.312573 0.462071 0.445094
494 2 0.357755 0.363423 0.419147
308 1 0.38884 0.398001 0.433664
633 1 0.313707 0.402552 0.410811
410 2 0.373866 0.442111 0.448816
550 1 0.132259 0.113354 0.51597
574 5 0.0504382 0.179646 0.514006
1155 1 0.132333 0.225974 0.50628
520 2 0.194378 0.114824 0.511441
811 1 0.222021 0.0607616 0.519474
643 1 0.223877 0.167871 0.519076
785 1 0.113688 0.0810793 0.581645
857 1 0.209108 0.053093 0.577249
69 2 0.218592 0.202795 0.595318
114 2 0.238283 0.0139584 0.591314
45 1 0.220895 0.497831 0.497815
1089 1 0.0128878 0.0785907 0.586875
1006 1 0.0530006 0.127845 0.541467
738 3 0.0821094 0.218782 0.58897
647 2 0.169939 0.106442 0.57419
192 1 0.159142 0.11359 0.553001
632 1 0.0250931 0.182438 0.583664
897 2 0.0641295 0.0401723 0.584077
826 3 0.112744 0.0948935 0.537502
680 1 0.105398 0.0244603 0.540842
548 1 0.19417 0.157465 0.582648
803 5 0.200215 0.207216 0.549721
219 1 0.115806 0.234495 0.568818
23 1 0.353801 0.083883 0.525746
298 2 0.267782 0.212777 0.512228
101 1 0.323653 0.179783 0.513763
854 2 0.35132 0.121872 0.50865
1118 1 0.286334 0.436951 0.591136
470 2 0.45747 0.181099 0.510392
413 1 0.432221 0.226788 0.522911
684 1 0.484067 0.0224018 0.522227
833 1 0.411252 0.141712 0.503124
930 2 0.494581 0.0171443 0.500876
81 1 0.413881 0.0347968 0.589092
961 2 0.444488 0.091321 0.585765
900 3 0.433605 0.232467 0.588521
945 5 0.482214 0.189974 0.552811
42 1 0.493495 0.197784 0.584818
1057 1 0.318416 0.263145 0.557591
1161 1 0.429345 0.109713 0.566177
1066 5 0.385876 0.157661 0.543032
596 1 0.299172 0.159025 0.562976
1199 2 0.317791 0.213791 0.571857
10 1 0.271122 0.228593 0.585954
220 1 0.301396 0.0182681 0.588815
646 5 0.267301 0.0768745 0.546216
837 5 0.371654 0.0415757 0.55355
438 1 0.374893 0.207756 0.580885
1001 2 0.143137 0.283323 0.515986
92 1 0.0898459 0.318049 0.510804
916 1 0.0442123 0.469231 0.509965
1194 5 0.321331 0.43169 0.557053
342 5 0.141003 0.480679 0.520378
605 1 0.19426 0.312575 0.506767
424 2 0.028198 0.317425 0.503828
798 5 0.208976 0.39957 0.507273
558 5 0.254058 0.350717 0.590165
317 3 0.229207 0.468532 0.582117
611 1 0.245517 0.333701 0.549453
215 1 0.214682 0.424283 0.565254
367 5 0.0416572 0.397415 0.532258
105 2 0.293167 0.298444 0.541491
366 1 0.0575473 0.310796 0.553931
130 5 0.0119951 0.342965 0.579078
759 1 0.156389 0.335211 0.565808
231 2 0.117792 0.289418 0.557325
153 1 0.14372 0.277604 0.537945
786 2 0.00944224 0.459549 0.59277
518 1 0.0631579 0.281476 0.596184
127 1 0.155362 0.395613 0.53905
352 1 0.0759258 0.467727 0.590208
174 2 0.195987 0.372796 0.553735
439 5 0.116229 0.464444 0.557394
100 2 0.336642 0.396904 0.521453
922 5 0.362874 0.265095 0.503464
977 1 0.267029 0.256468 0.52777
535 1 0.28095 0.424775 0.527669
966 1 0.382457 0.433465 0.529544
1013 1 0.344748 0.372293 0.501411
372 1 0.348967 0.325807 0.591346
227 1 0.442397 0.297206 0.578798
851 1 0.40986 0.4945 0.449342
652 5 0.417866 0.291112 0.544725
998 1 0.396182 0.346082 0.402526
784 2 0.433093 0.462451 0.539255
20 1 0.149871 0.00408749 0.451341
706 1 0.423401 0.487507 0.558719
303 1 0.484468 0.42284 0.540056
340 1 0.382662 0.487321 0.593733
1105 1 0.338891 0.335429 0.531588
395 5 0.357423 0.00258592 0.510903
309 5 0.277535 0.114946 0.400921
943 5 0.486516 0.316883 0.518345
1117 5 0.104145 0.367637 0.590758
677 1 0.00367366 0.220598 0.543433
348 5 0.499741 0.331982 0.556004
1173 1 0.0707241 0.30143 0.400149
1000 1 0.337066 0.413829 0.655808
123 1 0.251188 0.168256 0.645638
610 1 0.240086 0.172586 0.612648
1094 2 0.269145 0.0472187 0.628661
162 1 0.0057492 0.12195 0.625174
50 5 0.140842 0.46639 0.667236
142 1 0.142688 0.0759845 0.665905
71 2 0.37102 0.438648 0.6402
1085 2 0.122597 0.490234 0.604703
711 5 0.0997788 0.084454 0.614825
700 1 0.146297 0.137173 0.636548
359 1 0.229991 0.0652915 0.643965
1126 1 0.106092 0.182798 0.609132
47 2 0.114987 0.191586 0.62977
94 1 0.05628 0.198786 0.639115
230 2 0.178656 0.0998519 0.650661
1072 1 0.439576 0.172219 0.636929
753 1 0.480949 0.0717445 0.633911
999 1 0.394138 0.270932 0.640608
31 5 0.331195 0.31704 0.623775
931 1 0.308733 0.00211629 0.637317
209 1 0.427325 0.23815 0.610941
607 2 0.32798 0.471257 0.604202
205 5 0.291557 0.00529902 0.672884
255 1 0.340237 0.193802 0.625749
986 1 0.230452 0.036321 0.611649
202 5 0.318082 0.281873 0.658801
365 1 0.304869 0.100231 0.624059
111 2 0.398691 0.216966 0.62897
651 2 0.285596 0.160425 0.627977
458 1 0.146438 0.247338 0.631928
51 1 0.155972 0.389106 0.650314
343 1 0.228264 0.311394 0.619676
1114 2 0.16665 0.289285 0.616147
1145 1 0.0594187 0.374258 0.640866
1183 5 0.105765 0.310243 0.657841
870 1 0.135078 0.345142 0.619968
415 1 0.433701 0.124603 0.60406
956 1 0.341265 0.434291 0.621398
1103 2 0.46853 0.0106895 0.641516
1042 2 0.490351 0.135065 0.631634
631 1 0.116238 0.451309 0.623135
1069 2 0.116112 0.393685 0.63331
1150 1 0.425619 0.402642 0.634854
639 5 0.252758 0.369915 0.642048
525 2 0.465577 0.393196 0.617182
1111 1 0.0744423 0.00198017 0.601232
498 1 0.00175169 0.404537 0.603821
1108 5 0.0110706 0.0348446 0.623973
54 1 0.391232 0.498934 0.643489
370 1 0.130037 0.513806 0.353535
914 1 0.496068 0.934764 0.393647
388 1 0.233182 0.730005 0.390561
1136 1 0.233855 0.718401 0.355576
510 1 0.000410059 0.62022 0.398192
429 5 0.260904 0.643133 0.379225
739 5 0.154568 0.649339 0.390649
1101 1 0.183885 0.566392 0.380313
763 1 0.126185 0.737484 0.351143
404 1 0.321334 0.76389 0.374131
708 1 0.160813 0.634001 0.354795
734 5 0.41077 0.766826 0.388921
85 1 0.0808746 0.588562 0.377216
839 2 0.169339 0.694398 0.354512
212 2 0.016737 0.591175 0.379894
1144 3 0.136113 0.577659 0.364069
422 5 0.034228 0.720132 0.366853
919 1 0.420551 0.563083 0.394425
598 1 0.41057 0.66557 0.389469
1033 1 0.415953 0.642586 0.341331
697 5 0.350925 0.914573 0.366898
1064 1 0.485184 0.609881 0.364598
918 1 0.414074 0.540629 0.349879
758 1 0.436741 0.867524 0.376916
715 2 0.432058 0.59959 0.354948
52 5 0.355066 0.84992 0.392554
176 5 0.388026 0.714589 0.363208
579 1 0.352387 0.603896 0.371626
124 2 0.377138 0.61079 0.391281
668 5 0.281932 0.52923 0.365158
807 5 0.334833 0.554142 0.330516
1122 1 0.246518 0.931435 0.362333
1088 2 0.209116 0.883503 0.36953
286 1 0.235944 0.826971 0.366884
797 1 0.190825 0.895844 0.391214
1135 1 0.0898784 0.713835 0.39716
89 1 0.151209 0.883996 0.360557
634 2 0.492452 0.89931 0.37534
84 3 0.256056 0.764104 0.371789
762 1 0.123364 0.977302 0.347022
416 1 0.0498566 0.897171 0.353518
6 5 0.0737825 0.808925 0.366928
519 2 0.103288 0.926713 0.358404
500 5 0.48886 0.939314 0.3222
750 5 0.290674 0.796024 0.336818
747 1 0.1012 0.944195 0.380592
9 1 0.497838 0.516956 0.377741
572 2 0.18389 0.519112 0.393558
917 2 0.44535 0.501561 0.389333
679 1 0.290836 0.920938 0.395993
815 2 0.133141 0.924441 0.397977
1186 1 0.490933 0.936751 0.35757
1007 1 0.185053 0.59841 0.480238
12 5 0.090755 0.744403 0.476795
1157 1 0.0977596 0.648511 0.475336
844 2 0.243106 0.745708 0.487163
531 1 0.224588 0.740149 0.428147
718 1 0.249692 0.639554 0.426663
620 2 0.204685 0.679488 0.433501
135 1 0.184671 0.672689 0.453835
398 5 0.00454646 0.627158 0.453476
1058 1 0.149966 0.672515 0.421283
670 1 0.138939 0.585422 0.448005
444 1 0.150659 0.524573 0.411985
445 3 0.149525 0.528449 0.435431
994 5 0.0501986 0.561391 0.420022
637 1 0.153166 0.977058 0.408809
446 1 0.0408509 0.677988 0.425971
1137 2 0.0935676 0.707257 0.418808
1169 2 0.149015 0.626706 0.464603
1083 1 0.33279 0.638913 0.477191
213 5 0.363772 0.5429 0.475517
1002 1 0.276114 0.518498 0.470155
1018 2 0.304484 0.644498 0.496636
349 1 0.258208 0.690203 0.497299
1197 2 0.45801 0.746382 0.470108
749 1 0.410589 0.702169 0.468888
554 5 0.441536 0.655645 0.495846
238 1 0.482672 0.556286 0.432092
501 5 0.450552 0.631368 0.417047
499 1 0.426834 0.715552 0.427425
528 1 0.41847 0.602477 0.45919
1049 3 0.455327 0.547113 0.452638
1031 1 0.344206 0.654578 0.442138
789 1 0.304301 0.560468 0.437216
562 1 0.327319 0.735006 0.414046
867 5 0.39968 0.871001 0.598591
208 1 0.214378 0.509293 0.441267
847 1 0.337508 0.610115 0.408076
911 2 0.310905 0.619351 0.427652
740 2 0.274268 0.514273 0.448785
1038 2 0.376317 0.65259 0.461254
426 1 0.0626746 0.842695 0.472429
1087 1 0.130991 0.951802 0.482058
11 1 0.180027 0.752723 0.485357
167 5 0.140873 0.842996 0.493065
862 1 0.0115397 0.968872 0.538013
374 1 0.241636 0.891527 0.485774
949 5 0.0131117 0.867201 0.523761
705 2 0.233091 0.894639 0.44737
183 2 0.244993 0.888951 0.405772
603 1 0.233919 0.906533 0.426102
475 5 0.0214881 0.896492 0.428357
823 5 0.176473 0.779079 0.454437
180 5 0.0957628 0.851062 0.442358
35 1 0.103946 0.759129 0.431394
594 1 0.171784 0.902372 0.45379
988 2 0.132183 0.949557 0.460708
993 5 0.00718979 0.847362 0.404381
892 1 0.0700029 0.939247 0.453456
997 5 0.0334281 0.765143 0.450705
334 1 0.104299 0.878666 0.408614
941 1 0.347562 0.95478 0.482021
764 1 0.341412 0.824993 0.473102
881 1 0.272186 0.747202 0.468506
1015 3 0.275134 0.956504 0.481342
434 1 0.265044 0.794853 0.498854
294 1 0.43487 0.90126 0.47463
293 1 0.461003 0.769897 0.490088
952 2 0.427169 0.512411 0.57934
874 2 0.408749 0.95941 0.477323
173 1 0.00940477 0.529426 0.446731
140 1 0.403285 0.811291 0.418686
699 1 0.402421 0.915681 0.411617
958 3 0.400899 0.851627 0.464683
325 1 0.440242 0.798366 0.458397
277 1 0.482535 0.872933 0.430329
361 5 0.0084075 0.610436 0.546837
898 3 0.44035 0.966685 0.404057
356 2 0.418441 0.871799 0.426259
1034 1 0.384987 0.881604 0.44439
226 1 0.270505 0.938166 0.456441
138 1 0.343022 0.773238 0.443715
1156 3 0.263063 0.757529 0.40931
513 2 0.303567 0.795788 0.458608
980 5 0.345261 0.979789 0.441375
86 1 0.41866 0.991619 0.45874
144 2 0.376632 0.754949 0.426413
942 1 0.2582 0.83626 0.451696
1189 5 0.154566 0.675357 0.503876
549 1 0.0821761 0.68029 0.525245
1147 5 0.0762482 0.607165 0.503673
665 2 0.0332014 0.721196 0.527123
657 1 0.172219 0.585104 0.516139
1112 3 0.211452 0.56974 0.498641
618 5 0.243314 0.51565 0.531636
655 5 0.21415 0.66259 0.534262
120 1 0.221666 0.618505 0.566532
910 5 0.120614 0.605979 0.543633
182 1 0.147358 0.546029 0.570488
39 1 0.0628204 0.528725 0.538912
616 1 0.0209849 0.630249 0.578998
506 1 0.130764 0.637692 0.585449
1142 5 0.0477751 0.540429 0.569897
820 2 0.0713219 0.663336 0.587475
751 1 0.165271 0.724534 0.555881
145 1 0.0799713 0.722309 0.578122
1061 2 0.176906 0.594007 0.580667
307 2 0.368688 0.704741 0.526643
678 1 0.349948 0.664354 0.510586
568 5 0.347903 0.539482 0.518709
168 1 0.275983 0.590021 0.502296
386 1 0.252561 0.825469 0.405375
978 2 0.463457 0.521796 0.506041
283 1 0.404365 0.751248 0.517327
387 1 0.420621 0.562076 0.498025
581 1 0.411286 0.675693 0.540164
902 1 0.415571 0.679863 0.574626
181 1 0.414955 0.575561 0.577605
1170 2 0.440297 0.702987 0.556874
541 5 0.399182 0.585967 0.547776
281 1 0.300464 0.58351 0.545151
79 1 0.318286 0.720506 0.538756
1 1 0.317384 0.615717 0.579056
143 1 0.259591 0.528889 0.574181
1028 3 0.383393 0.632909 0.586416
534 2 0.279945 0.583705 0.565367
886 5 0.255474 0.708043 0.566031
490 5 0.118758 0.834924 0.532455
1050 1 0.0901261 0.904411 0.510716
474 1 0.167198 0.973562 0.514471
7 1 0.0247345 0.752122 0.508177
576 2 0.115403 0.958745 0.502829
545 2 0.225644 0.994347 0.519258
246 1 0.209526 0.855419 0.517788
702 1 0.0408247 0.768158 0.542248
841 5 0.250876 0.785457 0.535877
1116 1 0.217466 0.95306 0.590805
1141 1 0.244381 0.977765 0.53862
268 1 0.447652 0.514358 0.52727
262 1 0.163597 0.759479 0.590524
727 3 0.0842599 0.874971 0.5676
860 2 0.0663518 0.976608 0.548396
451 5 0.173859 0.976064 0.560008
405 1 0.100644 0.905877 0.587464
765 1 0.120523 0.816687 0.566594
399 5 0.191456 0.882103 0.546932
376 1 0.0979747 0.921316 0.551358
482 1 0.0215219 0.851336 0.563067
252 1 0.00583114 0.937164 0.486923
567 2 0.131875 0.754301 0.570709
1011 2 0.257534 0.858121 0.503244
1184 1 0.310463 0.882299 0.513391
495 1 0.400949 0.937604 0.527682
1093 2 0.371495 0.882916 0.520915
41 1 0.266908 0.976894 0.504263
1113 1 0.492518 0.813579 0.522239
511 1 0.411747 0.852087 0.507179
83 2 0.444153 0.796416 0.508719
368 2 0.398301 0.824134 0.558454
414 1 0.459701 0.977702 0.555893
719 3 0.463971 0.965125 0.532761
1095 1 0.449297 0.788824 0.592907
315 1 0.429377 0.767823 0.556326
484 1 0.438501 0.875932 0.561053
450 2 0.434603 0.935443 0.569327
360 1 0.458853 0.935111 0.589095
731 1 0.352139 0.821565 0.573138
905 1 0.371369 0.947499 0.572474
1115 1 0.27801 0.768565 0.589716
310 5 0.303656 0.915196 0.55263
816 1 0.25354 0.838066 0.563107
221 2 0.288647 0.823781 0.580457
592 1 0.371371 0.843838 0.539229
1023 1 0.281704 0.873325 0.593934
234 3 0.362996 0.986348 0.591286
70 2 0.0105207 0.877713 0.477944
544 1 0.207619 0.579615 0.599407
685 2 0.0185057 0.50613 0.525416
861 1 0.484582 0.506993 0.588832
1180 5 0.369466 0.744721 0.597531
853 5 0.148731 0.798442 0.405692
877 1 0.440391 0.987152 0.493732
479 1 0.457903 0.99728 0.424574
640 1 0.054832 0.999098 0.56794
913 5 0.0420286 0.677449 0.67196
68 1 0.228032 0.565952 0.63472
852 2 0.242547 0.699034 0.668943
440 5 0.224426 0.697882 0.602717
329 1 0.218121 0.643314 0.659372
950 2 0.18824 0.598498 0.647314
710 1 0.225196 0.751309 0.656641
1123 1 0.372097 0.966337 0.613393
1166 1 0.2218 0.703597 0.688648
627 1 0.0504716 0.567768 0.678013
521 1 0.187555 0.853112 0.605553
99 2 0.498059 0.941441 0.606208
1131 5 0.0954995 0.979248 0.671271
819 1 0.065976 0.654481 0.609835
1020 1 0.027632 0.756374 0.640552
609 2 0.093809 0.603145 0.622148
704 1 0.162552 0.556502 0.662587
891 1 0.105351 0.549287 0.609029
455 1 0.148279 0.621137 0.631159
955 1 0.0585825 0.582682 0.639218
437 5 0.218864 0.593597 0.687097
483 1 0.446473 0.543886 0.619581
1008 1 0.412006 0.725163 0.652587
104 5 0.269884 0.793167 0.682205
177 3 0.334604 0.838285 0.640937
1191 1 0.476641 0.743312 0.621699
1074 2 0.415318 0.559355 0.638134
106 1 0.46036 0.591568 0.648922
393 5 0.0862434 0.564788 0.706064
119 1 0.381414 0.658248 0.607398
217 1 0.264722 0.831374 0.637254
125 1 0.308651 0.700256 0.669396
1125 2 0.252968 0.573394 0.61463
186 2 0.347635 0.729873 0.654651
923 1 0.285223 0.632179 0.615256
733 1 0.297825 0.529134 0.609836
927 1 0.332208 0.70343 0.635849
363 1 0.363801 0.601298 0.635564
129 2 0.341315 0.647535 0.62397
17 2 0.497139 0.754151 0.601295
960 1 0.2557 0.91137 0.66401
937 3 0.226849 0.924763 0.644985
442 2 0.228968 0.901644 0.604103
1167 2 0.209881 0.794855 0.642025
588 1 0.19109 0.763783 0.623903
653 1 0.246246 0.92903 0.622555
1110 2 0.3606 0.963758 0.634971
80 1 0.165609 0.844962 0.646694
712 1 0.096842 0.799834 0.615929
1067 2 0.155468 0.797207 0.608003
345 1 0.00691067 0.851891 0.628588
802 2 0.0355001 0.793254 0.622994
244 3 0.119645 0.899466 0.642503
324 1 0.164938 0.950968 0.647418
1124 2 0.0709401 0.936711 0.603974
1003 1 0.0596905 0.891393 0.654329
1104 1 0.00272111 0.504389 0.65565
1014 1 0.406209 0.996931 0.646877
60 1 0.0998903 0.919269 0.621478
1106 1 0.389755 0.802082 0.630238
1176 5 0.465947 0.766996 0.683304
338 1 0.482993 0.804266 0.650246
838 1 0.479801 0.971394 0.624669
491 2 0.442894 0.768546 0.637647
132 1 0.337003 0.791294 0.659858
908 1 0.35137 0.902039 0.640137
1046 1 0.0060739 0.923527 0.601037
906 2 0.0241426 0.564979 0.658458
38 3 0.499576 0.51225 0.611215
285 1 0.709312 0.167298 0.384582
725 1 0.634684 0.0635478 0.366684
464 1 0.690252 0.125891 0.343106
676 1 0.756609 0.360386 0.37608
1178 2 0.724024 0.215532 0.37137
1026 1 0.763558 0.195786 0.355788
1092 2 0.687454 0.0695139 0.354194
810 1 0.741296 0.0645017 0.365447
692 2 0.785829 0.37753 0.358098
1016 5 0.566151 0.127037 0.370453
321 1 0.536657 0.0306985 0.372354
934 1 0.523729 0.224734 0.366826
1148 2 0.595992 0.0252019 0.379197
757 1 0.538635 0.151246 0.342153
555 1 0.748723 0.400797 0.343786
328 2 0.538767 0.213805 0.344637
497 5 0.682183 0.448116 0.326192
614 1 0.973095 0.191769 0.362304
1073 2 0.801734 0.0516444 0.37177
745 3 0.907894 0.418468 0.360112
818 2 0.859072 0.0953614 0.335714
1010 1 0.875675 0.280603 0.378007
330 1 0.906359 0.138584 0.337288
540 5 0.819885 0.18572 0.382693
957 1 0.919234 0.00897654 0.394041
992 5 0.981923 0.0753478 0.349883
288 2 0.934764 0.193894 0.341879
1068 1 0.803165 0.121619 0.330586
990 1 0.844556 0.0665873 0.355103
1163 1 0.818664 0.0923227 0.388197
107 1 0.888507 0.0481819 0.325059
585 3 0.750087 0.159385 0.336565
940 1 0.612291 0.330279 0.381248
688 1 0.694983 0.259284 0.327735
729 1 0.645629 0.334228 0.346933
16 2 0.653737 0.272921 0.342464
396 1 0.741837 0.471763 0.37736
254 2 0.676337 0.478419 0.373005
845 1 0.533713 0.0159003 0.336483
77 1 0.64859 0.419725 0.369538
1096 1 0.755605 0.259307 0.384578
984 1 0.671843 0.243336 0.361726
121 5 0.600926 0.0780321 0.328691
389 1 0.995733 0.200545 0.33126
267 1 0.595182 0.243395 0.339256
774 1 0.557484 0.387352 0.356605
1192 2 0.61426 0.367584 0.363439
822 5 0.611599 0.235817 0.383565
799 2 0.762454 0.319422 0.392258
436 1 0.921682 0.454243 0.34225
299 1 0.918753 0.350288 0.356464
1200 1 0.833496 0.422548 0.366691
261 1 0.897646 0.24718 0.3456
947 2 0.880124 0.300808 0.357761
467 2 0.877418 0.295757 0.399279
732 2 0.804934 0.46118 0.381643
341 1 0.950899 0.436864 0.3778
493 5 0.933799 0.111576 0.390823
1045 1 0.823746 0.327295 0.352142
1146 5 0.955166 0.221178 0.39363
840 1 0.602269 0.0477717 0.399072
903 1 0.690543 0.0150512 0.34155
904 5 0.999605 0.34879 0.381547
477 5 0.982733 0.375546 0.337523
1019 5 0.547282 0.0960285 0.464226
1030 2 0.533909 0.249337 0.48599
146 1 0.576634 0.204988 0.479827
691 1 0.622899 0.117105 0.486121
713 1 0.64279 0.0171238 0.496801
613 2 0.633693 0.174425 0.476489
179 1 0.682501 0.205071 0.486057
469 5 0.734129 0.0438579 0.480153
783 1 0.68821 0.0666466 0.454184
2 1 0.635398 0.100533 0.426966
454 1 0.644662 0.159839 0.45583
401 5 0.727392 0.220933 0.457364
128 5 0.609904 0.0135041 0.462951
489 1 0.727916 0.143791 0.433189
864 2 0.676165 0.117238 0.442669
795 5 0.671707 0.19622 0.411867
770 1 0.519304 0.00513309 0.455326
3 2 0.592026 0.0979016 0.411474
30 1 0.531859 0.0895634 0.41965
693 5 0.765991 0.236992 0.497796
478 1 0.783544 0.125247 0.471438
682 5 0.940856 0.122579 0.492365
253 5 0.893064 0.0502865 0.467935
622 2 0.832775 0.166074 0.474832
394 1 0.991392 0.0420261 0.476401
116 1 0.850595 0.168294 0.495752
115 1 0.525361 0.238228 0.40478
199 5 0.833669 0.0212105 0.412996
683 1 0.995478 0.241478 0.456976
782 1 0.818146 0.226106 0.469057
664 1 0.664851 0.494757 0.428143
582 5 0.922174 0.202752 0.436615
1179 5 0.98815 0.123339 0.450924
522 5 0.809294 0.178483 0.430183
214 1 0.87157 0.243362 0.410986
829 1 0.884213 0.147149 0.463766
1077 3 0.509137 0.49997 0.421526
95 5 0.777903 0.0545944 0.44712
517 5 0.720539 0.0868967 0.402139
880 1 0.513489 0.420635 0.470256
466 1 0.514139 0.29666 0.473056
218 5 0.599253 0.366964 0.47095
1052 5 0.697588 0.305997 0.482167
1168 5 0.742258 0.415429 0.490411
546 2 0.605811 0.28477 0.44191
721 5 0.630508 0.379719 0.410577
593 3 0.664969 0.488629 0.4519
433 1 0.722016 0.357711 0.438428
312 1 0.653327 0.278479 0.427458
1004 2 0.751461 0.401723 0.45073
44 2 0.711032 0.305589 0.426406
57 1 0.634183 0.282038 0.461106
37 1 0.71662 0.330086 0.406101
669 1 0.713242 0.446616 0.459914
767 1 0.601875 0.470498 0.460041
586 1 0.582273 0.343518 0.438644
536 1 0.51665 0.457287 0.438829
1133 1 0.558764 0.240211 0.438253
863 2 0.539104 0.468535 0.458475
1091 1 0.781586 0.369237 0.466786
761 3 0.84359 0.372687 0.479146
476 5 0.910224 0.256059 0.474861
357 2 0.884182 0.481328 0.495435
263 1 0.894567 0.348843 0.466671
1138 1 0.945072 0.461755 0.492493
735 1 0.84549 0.443995 0.483656
636 1 0.883253 0.471851 0.426713
674 1 0.806986 0.442188 0.402821
64 2 0.819621 0.466613 0.422592
687 1 0.502259 0.0731469 0.491885
131 1 0.928553 0.330315 0.402978
1021 5 0.827134 0.289829 0.447386
1190 5 0.933231 0.414073 0.407699
1035 5 0.916535 0.43968 0.450925
103 1 0.791769 0.429031 0.437062
672 1 0.758999 0.264277 0.428386
1121 2 0.564903 0.137679 0.527146
1109 1 0.501203 0.150079 0.522667
164 1 0.59711 0.0894383 0.519219
73 2 0.590089 0.258012 0.523434
58 1 0.695378 0.0961526 0.511453
901 2 0.638523 0.0787044 0.502695
304 1 0.595345 0.192136 0.521194
1041 1 0.566678 0.13753 0.549491
936 1 0.716338 0.0363531 0.58372
1139 1 0.65019 0.106493 0.567096
53 1 0.70121 0.140274 0.595003
626 2 0.609144 0.156639 0.564761
210 5 0.734901 0.0603536 0.539796
339 2 0.705672 0.096287 0.578391
43 5 0.690473 0.20515 0.527842
369 1 0.639346 0.210104 0.557634
971 1 0.693357 0.245711 0.589073
976 5 0.525377 0.366407 0.40261
830 1 0.588429 0.169966 0.584311
350 2 0.562983 0.0361442 0.587958
250 2 0.542229 0.186671 0.598049
1195 1 0.508664 0.0736629 0.586181
487 5 0.504951 0.0631842 0.550767
1154 5 0.781568 0.116252 0.509177
515 5 0.893734 0.0840517 0.518154
408 1 0.966076 0.1453 0.524342
384 5 0.89458 0.21003 0.520085
224 1 0.813719 0.0299326 0.521453
794 1 0.962273 0.0183604 0.512293
1198 1 0.818117 0.184435 0.548689
157 1 0.904653 0.0332128 0.582138
746 1 0.989134 0.156729 0.417536
1005 1 0.851189 0.0871173 0.559612
332 1 0.96408 0.135929 0.560671
1187 2 0.881105 0.0306524 0.562156
809 2 0.983325 0.134079 0.581399
152 1 0.622383 0.378419 0.59698
118 2 0.815296 0.138937 0.563968
147 1 0.923992 0.0182431 0.545913
570 1 0.93655 0.152832 0.595063
200 2 0.996084 0.157285 0.542877
273 1 0.826167 0.160099 0.583889
228 1 0.7528 0.11687 0.565156
895 1 0.540623 0.395763 0.500819
427 2 0.598884 0.415156 0.508865
736 5 0.808547 0.0535084 0.592141
509 1 0.591041 0.405858 0.529928
878 1 0.561107 0.274593 0.504638
924 1 0.600277 0.4793 0.505541
612 1 0.74788 0.33073 0.513909
235 1 0.644396 0.293638 0.525247
279 1 0.6522 0.384412 0.502701
899 1 0.729564 0.47819 0.512942
948 3 0.681341 0.34742 0.52044
431 2 0.691946 0.485333 0.588573
379 2 0.719546 0.459021 0.533401
720 1 0.7438 0.266173 0.558317
890 1 0.742051 0.44669 0.594397
831 2 0.629545 0.386735 0.574934
98 1 0.741511 0.336304 0.585619
203 2 0.704915 0.28894 0.573875
716 1 0.705851 0.39641 0.535311
391 1 0.656428 0.445189 0.5763
351 1 0.655957 0.329695 0.567598
172 1 0.668487 0.490714 0.539909
557 2 0.508151 0.232578 0.425066
1119 3 0.549272 0.429529 0.546459
1056 1 0.547792 0.269276 0.539371
850 1 0.572206 0.396976 0.565781
1081 5 0.577042 0.280204 0.570044
336 1 0.868701 0.475467 0.515985
884 1 0.823539 0.280499 0.530358
843 5 0.922283 0.392961 0.525735
488 1 0.993511 0.308965 0.522035
825 2 0.810825 0.33455 0.519
133 1 0.842547 0.344883 0.500848
18 1 0.797276 0.401803 0.568948
982 3 0.810392 0.252404 0.55114
1102 1 0.877401 0.451125 0.55481
769 1 0.847728 0.280653 0.56882
291 1 0.902708 0.354853 0.586728
1158 1 0.935632 0.25757 0.587214
623 1 0.982041 0.458592 0.573783
1100 2 0.820433 0.425952 0.550319
946 1 0.945063 0.308216 0.557498
869 3 0.997572 0.289766 0.5437
742 2 0.906041 0.302055 0.574078
266 1 0.979365 0.46848 0.537082
529 1 0.823192 0.381843 0.53392
530 3 0.940752 0.480645 0.556078
737 2 0.771147 0.391691 0.588478
189 1 0.775565 0.468708 0.544349
1044 1 0.57676 0.0145453 0.567975
297 1 0.820539 0.328545 0.40106
801 1 0.566288 0.498403 0.548173
1175 1 0.593411 0.152127 0.400076
1054 5 0.998942 0.348393 0.461709
300 2 0.552641 0.215553 0.650223
1043 1 0.613449 0.23105 0.651514
788 1 0.70829 0.184433 0.652975
354 2 0.703507 0.19915 0.604246
441 2 0.635629 0.023469 0.619023
748 1 0.672598 0.216149 0.62206
875 1 0.610505 0.0522752 0.601595
1152 1 0.673108 0.0634112 0.628999
122 5 0.651227 0.114012 0.653517
46 5 0.737699 0.0413989 0.674058
656 2 0.676526 0.231485 0.643007
355 1 0.714819 0.394721 0.653384
539 1 0.530254 0.156821 0.648477
1025 1 0.530456 0.151934 0.615399
240 1 0.554862 0.249239 0.606224
601 1 0.525311 0.261244 0.638539
56 1 0.817588 0.380666 0.603407
430 5 0.798755 0.288162 0.606365
932 1 0.806482 0.0468094 0.652993
194 5 0.905113 0.0295008 0.698344
1182 5 0.882233 0.222757 0.670092
33 5 0.88505 0.0985081 0.64713
383 1 0.949316 0.173833 0.648685
93 1 0.976032 0.222558 0.618502
136 5 0.993583 0.318675 0.616463
666 1 0.87111 0.215181 0.609283
615 1 0.91853 0.0101875 0.633976
975 5 0.928432 0.0684287 0.610066
335 1 0.824959 0.11933 0.615784
292 2 0.823008 0.174098 0.605109
1151 1 0.767793 0.205534 0.609533
448 5 0.751949 0.116401 0.644161
223 1 0.606556 0.424563 0.627708
933 2 0.633542 0.373573 0.618027
642 2 0.719155 0.459477 0.657485
527 1 0.697503 0.368171 0.621159
1140 2 0.995938 0.180302 0.63426
457 2 0.728821 0.345663 0.63861
771 1 0.703043 0.290621 0.645329
972 1 0.88984 0.449003 0.605318
1130 2 0.554306 0.462251 0.632005
641 1 0.544406 0.470213 0.652089
463 2 0.545134 0.295409 0.620514
1009 1 0.603521 0.3214 0.62566
507 2 0.933782 0.213463 0.602872
524 1 0.505048 0.341764 0.61596
301 5 0.806066 0.49699 0.612209
963 1 0.874731 0.412617 0.652748
1080 2 0.880566 0.385998 0.603686
65 1 0.893566 0.357714 0.622771
1132 2 0.847017 0.469789 0.657484
887 2 0.863532 0.353513 0.642336
675 1 0.781086 0.466948 0.661203
909 5 0.989948 0.39937 0.662094
569 1 0.793049 0.342711 0.637195
1040 1 0.878145 0.303501 0.653609
193 1 0.503971 0.445303 0.618878
337 5 0.997839 0.452108 0.630998
481 1 0.584442 8.94146e-06 0.630572
835 1 0.974725 0.98462 0.354456
239 1 0.644607 0.616286 0.343832
411 2 0.741383 0.644682 0.374787