ITEM: TIMESTEP
1200
ITEM: NUMBER OF ATOMS
1200
ITEM: BOX BOUNDS pp pp pp
-7.6266250050336382e-02 2.5098596345622489e+01
-7.6266250050336382e-02 2.5098596345622489e+01
-2.5251128845723162e+01 5.0273458941295317e+01
ITEM: ATOMS id type xs ys zs
760 1 0.0692281 0.134101 0.395272
419 1 0.237764 0.15924 0.358795
108 1 0.232847 0.0549618 0.359017
96 1 0.0448764 0.045279 0.380927
635 5 0.237954 0.198335 0.328728
1076 1 0.186347 0.100858 0.333523
1193 1 0.115964 0.108007 0.363011
580 5 0.146518 0.198258 0.355431
269 2 0.0252832 0.221902 0.340425
638 5 0.0899908 0.0965667 0.323001
390 2 0.0933208 0.0880343 0.381946
645 3 0.167252 0.068583 0.353385
967 1 0.0726875 0.190485 0.332803
542 1 0.14496 0.0660013 0.392214
804 1 0.234384 0.00930947 0.391521
1149 3 0.249893 0.107592 0.344525
787 1 0.411673 0.236372 0.360839
314 1 0.434829 0.20017 0.394384
590 2 0.481411 0.239704 0.388739
559 1 0.431708 0.0422242 0.360972
973 5 0.412658 0.113449 0.339665
468 2 0.387905 0.158478 0.398081
1174 1 0.310418 0.110793 0.333615
1037 1 0.383502 0.114327 0.382094
432 5 0.340233 0.177632 0.360653
196 2 0.391262 0.0515363 0.377306
500 5 0.441978 0.0354875 0.309259
465 1 0.332005 0.0285557 0.373836
907 1 0.415699 0.0219305 0.394986
624 3 0.495512 0.0203144 0.354686
309 5 0.232222 0.156743 0.39298
26 5 0.255719 0.428139 0.341215
577 2 0.112905 0.473779 0.364594
82 1 0.200677 0.289529 0.352347
1173 1 0.0615729 0.311367 0.391929
40 5 0.127764 0.336735 0.337129
813 1 0.0494932 0.470173 0.369602
403 5 0.150699 0.346578 0.373781
1071 1 0.256922 0.342987 0.378274
834 1 0.148226 0.479153 0.383737
418 1 0.0366363 0.278477 0.347641
915 1 0.135314 0.416657 0.356842
904 5 0.0218048 0.357355 0.369418
456 1 0.474501 0.331888 0.350476
917 2 0.446226 0.496464 0.38902
935 2 0.441589 0.275829 0.346785
893 5 0.32423 0.293766 0.396031
460 1 0.334132 0.459602 0.349506
1053 1 0.291004 0.34614 0.345719
565 5 0.29534 0.435719 0.381126
346 2 0.254437 0.309882 0.360411
703 2 0.391797 0.474586 0.355986
241 1 0.453251 0.297542 0.387115
373 1 0.396373 0.472095 0.378119
1171 1 0.444199 0.44375 0.348586
409 1 0.467831 0.395733 0.378548
1159 2 0.422715 0.353801 0.384574
412 2 0.346349 0.313741 0.352256
628 1 0.386894 0.299007 0.336729
660 1 0.306744 0.269869 0.361638
151 1 0.379514 0.342968 0.368489
807 5 0.485805 0.367944 0.317779
793 3 0.268483 0.00509505 0.370637
159 2 0.00231241 0.0120676 0.392857
762 1 0.131736 0.00909731 0.355129
929 1 0.487447 0.237696 0.339028
690 3 0.495087 0.397916 0.357113
397 2 0.0328278 0.228133 0.475608
885 5 0.169331 0.202627 0.481215
1185 5 0.0938312 0.0966684 0.490108
88 1 0.0378691 0.163839 0.478343
28 1 0.208566 0.102785 0.495514
62 5 0.24284 0.032324 0.445425
953 5 0.0947558 0.0412341 0.429124
1060 5 0.133243 0.226384 0.440388
137 5 0.18564 0.122586 0.441836
377 2 0.0523885 0.162253 0.414231
537 1 0.215858 0.0777474 0.418083
15 5 0.0669959 0.0849421 0.45885
353 1 0.0751163 0.224527 0.412538
1024 1 0.0799133 0.137075 0.43205
1070 2 0.189281 0.0359478 0.404337
20 1 0.152682 0.0365355 0.456028
257 3 0.000929638 0.00307294 0.493818
170 1 0.0285628 0.00467636 0.412229
472 1 0.250132 0.0112773 0.479626
75 1 0.310558 0.0831206 0.497764
375 2 0.257488 0.0728873 0.484724
206 1 0.258164 0.222681 0.490011
407 1 0.478963 0.199187 0.493814
247 5 0.418077 0.110229 0.475182
378 2 0.460139 0.0187113 0.448497
516 1 0.454603 0.0825857 0.445589
406 1 0.471849 0.181343 0.434521
91 1 0.409901 0.12384 0.415272
920 2 0.460169 0.120025 0.428292
211 5 0.326966 0.0601289 0.408149
858 1 0.269379 0.182861 0.441025
443 2 0.304397 0.139614 0.452377
14 1 0.332234 0.0886686 0.442302
322 5 0.369493 0.243504 0.429262
968 1 0.265652 0.109744 0.46675
72 1 0.35194 0.172423 0.462596
32 5 0.289432 0.27395 0.457862
922 5 0.356769 0.218942 0.488504
706 1 0.431647 0.49307 0.560351
545 2 0.214361 0.00423405 0.52591
372 1 0.345945 0.324803 0.586743
640 1 0.0498315 0.00364779 0.568128
290 1 0.332943 0.187979 0.401611
1017 1 0.0904371 0.249976 0.468441
1054 5 0.00827128 0.352596 0.457103
69 2 0.220737 0.207425 0.596663
779 5 0.122592 0.454663 0.471676
227 1 0.444803 0.293443 0.58175
242 1 0.0129919 0.256778 0.493859
754 1 0.0166972 0.44806 0.469827
78 5 0.151303 0.317554 0.477125
34 1 0.244972 0.422063 0.480892
663 1 0.108447 0.374019 0.455128
1079 5 0.229432 0.443081 0.412813
435 1 0.184543 0.309828 0.44464
392 1 0.00909529 0.415843 0.434454
208 1 0.215067 0.487545 0.440995
827 1 0.0940605 0.313056 0.426049
689 2 0.135946 0.349262 0.438289
722 1 0.0838263 0.490489 0.444238
1128 2 0.0265365 0.463443 0.448407
249 2 0.09708 0.282587 0.406498
265 1 0.158487 0.394502 0.425161
741 5 0.0808614 0.446777 0.413819
188 5 0.233587 0.341457 0.411605
382 5 0.239191 0.247132 0.420142
533 1 0.160273 0.278941 0.40242
998 1 0.393843 0.365568 0.40337
102 5 0.488087 0.355371 0.44758
1078 1 0.375338 0.406383 0.470918
564 2 0.380486 0.361896 0.486531
139 5 0.269065 0.322407 0.490674
547 1 0.307264 0.490613 0.498517
561 1 0.365352 0.305141 0.47852
256 2 0.255733 0.482736 0.48609
447 2 0.48804 0.41128 0.49089
4 1 0.443793 0.365042 0.492472
204 1 0.460347 0.463372 0.499721
608 1 0.462635 0.46927 0.407872
696 5 0.421993 0.252635 0.459369
996 1 0.455862 0.281562 0.430067
1039 5 0.255722 0.385173 0.447626
109 1 0.321366 0.339881 0.427008
694 1 0.31417 0.456864 0.448079
494 2 0.360018 0.388101 0.419912
308 1 0.398553 0.405154 0.43676
633 1 0.325867 0.436313 0.412397
410 2 0.375936 0.441334 0.452818
340 1 0.379802 0.477776 0.592338
851 1 0.405016 0.499754 0.455124
784 2 0.439054 0.46783 0.540661
558 5 0.251251 0.346199 0.584994
550 1 0.126226 0.116768 0.519609
574 5 0.0417732 0.161586 0.509611
1155 1 0.118876 0.222393 0.507011
520 2 0.189797 0.11733 0.515516
811 1 0.216198 0.0692569 0.526746
643 1 0.215635 0.175581 0.519614
785 1 0.111181 0.0785715 0.585045
857 1 0.210994 0.0570964 0.578635
303 1 0.488543 0.428394 0.540702
114 2 0.245811 0.0148431 0.589659
1089 1 0.0122503 0.0824938 0.5904
1006 1 0.0448575 0.120533 0.545892
738 3 0.0744897 0.22878 0.590146
647 2 0.167532 0.10273 0.576562
192 1 0.151594 0.117976 0.556848
632 1 0.0283158 0.180916 0.582536
897 2 0.0586048 0.0411882 0.585795
826 3 0.106174 0.0947475 0.540101
680 1 0.106538 0.0278174 0.542013
548 1 0.188361 0.156571 0.587636
803 5 0.195281 0.208134 0.550715
219 1 0.120892 0.246909 0.573558
10 1 0.26255 0.229622 0.582186
991 5 0.33039 0.124142 0.595935
395 5 0.355822 0.00722686 0.509803
930 2 0.497485 0.0162745 0.502365
296 1 0.0656418 0.00942107 0.500913
23 1 0.352292 0.0860551 0.529832
298 2 0.262415 0.213116 0.511261
101 1 0.313411 0.174354 0.514919
854 2 0.344679 0.117904 0.511719
470 2 0.4532 0.171564 0.511639
413 1 0.42525 0.216988 0.524029
684 1 0.485695 0.0134378 0.523947
833 1 0.403895 0.13257 0.505095
81 1 0.415839 0.0265928 0.585744
961 2 0.448549 0.0841795 0.585785
900 3 0.423206 0.229884 0.59067
945 5 0.47593 0.187758 0.551156
42 1 0.48088 0.197486 0.586652
1161 1 0.44364 0.107146 0.565687
1066 5 0.38521 0.165372 0.546045
596 1 0.291003 0.159503 0.559211
1199 2 0.309908 0.213678 0.569306
220 1 0.307234 0.0218398 0.584309
646 5 0.279843 0.0654155 0.551341
837 5 0.391495 0.0333181 0.554009
438 1 0.366546 0.207557 0.579684
1117 5 0.11222 0.36643 0.591263
518 1 0.0534477 0.293083 0.597729
1001 2 0.131439 0.278886 0.516294
92 1 0.0761529 0.314565 0.513624
916 1 0.0345845 0.461629 0.507439
605 1 0.179021 0.312023 0.508527
424 2 0.0154924 0.308097 0.506528
798 5 0.201215 0.400371 0.50981
130 5 0.00322295 0.347707 0.579786
317 3 0.2318 0.461303 0.582155
611 1 0.238599 0.329504 0.547406
215 1 0.22153 0.417773 0.563995
367 5 0.0555816 0.389454 0.533501
366 1 0.0502182 0.304097 0.555208
759 1 0.149983 0.343203 0.563916
231 2 0.114203 0.290651 0.557916
153 1 0.136753 0.273189 0.538273
685 2 0.00988493 0.499132 0.523243
127 1 0.157541 0.401085 0.535931
352 1 0.0631508 0.458068 0.59365
174 2 0.193749 0.375277 0.551391
439 5 0.121387 0.468215 0.555844
556 1 0.172988 0.468001 0.59592
652 5 0.412532 0.286689 0.549884
342 5 0.133933 0.497397 0.516669
1099 1 0.41235 0.384284 0.56974
348 5 0.487898 0.338022 0.552835
812 2 0.407777 0.344513 0.586504
1118 1 0.283562 0.431416 0.593832
943 5 0.458539 0.290089 0.508569
1057 1 0.314931 0.256507 0.552971
1194 5 0.320969 0.424819 0.560169
861 1 0.486265 0.478552 0.589805
105 2 0.292302 0.302494 0.539102
1105 1 0.339876 0.345884 0.536264
100 2 0.340368 0.400795 0.524872
977 1 0.274992 0.272052 0.520215
535 1 0.279637 0.41919 0.525846
966 1 0.383889 0.442744 0.533329
1013 1 0.350297 0.380479 0.504709
687 1 0.498627 0.0753852 0.494022
123 1 0.24593 0.16624 0.646382
610 1 0.257402 0.180777 0.612179
1131 5 0.177559 0.0122953 0.668757
142 1 0.171437 0.110843 0.669364
711 5 0.0986269 0.0937093 0.617788
700 1 0.145175 0.153306 0.639204
359 1 0.20829 0.0711964 0.640932
1126 1 0.0991075 0.199872 0.611261
47 2 0.107848 0.202654 0.633335
94 1 0.049827 0.207212 0.643403
230 2 0.19327 0.127771 0.650962
1108 5 0.0263403 0.0308912 0.630174
986 1 0.239906 0.0333951 0.610653
524 1 0.492302 0.316599 0.627858
162 1 0.00831841 0.125824 0.627686
1094 2 0.258274 0.0454048 0.6308
1072 1 0.447869 0.171932 0.634614
753 1 0.469702 0.063411 0.632585
209 1 0.413069 0.244141 0.612793
255 1 0.346022 0.190784 0.630234
365 1 0.298752 0.0963462 0.628014
111 2 0.405559 0.220595 0.632571
651 2 0.288398 0.161156 0.629807
415 1 0.425444 0.116921 0.602178
525 2 0.464405 0.372314 0.624084
1042 2 0.489808 0.124413 0.630646
1085 2 0.115377 0.481223 0.60395
344 1 0.429986 0.370575 0.605424
458 1 0.143741 0.256279 0.636343
51 1 0.15989 0.39479 0.650797
343 1 0.242272 0.290406 0.63256
1114 2 0.184782 0.290401 0.623862
1145 1 0.0637847 0.37129 0.63822
1183 5 0.148827 0.309438 0.665573
870 1 0.157908 0.348747 0.619796
631 1 0.113939 0.444938 0.622088
1069 2 0.122669 0.391038 0.633362
639 5 0.233206 0.463419 0.644922
551 1 0.191512 0.258165 0.605446
1103 2 0.458722 0.00107293 0.640133
1000 1 0.333204 0.403053 0.657111
54 1 0.38427 0.496175 0.646631
71 2 0.370252 0.432685 0.642431
999 1 0.403065 0.267651 0.64622
31 5 0.326656 0.302415 0.616921
607 2 0.329492 0.464593 0.604283
202 5 0.327247 0.299772 0.657499
956 1 0.343764 0.434355 0.62212
1150 1 0.426602 0.400331 0.639394
50 5 0.147108 0.47384 0.665865
909 5 0.00752891 0.399605 0.666691
337 5 0.00188249 0.453097 0.634303
370 1 0.128037 0.532091 0.354483
388 1 0.246214 0.740286 0.383345
1136 1 0.210136 0.739948 0.351263
575 1 0.238942 0.521639 0.394722
993 5 0.00856138 0.872071 0.398517
1101 1 0.158863 0.583344 0.384135
763 1 0.0969356 0.759022 0.357716
708 1 0.138396 0.657394 0.358784
85 1 0.0547778 0.600544 0.375373
839 2 0.149766 0.720899 0.358785
572 2 0.174294 0.530233 0.3955
1144 3 0.11757 0.595108 0.365376
422 5 0.0310179 0.71204 0.377388
1135 1 0.123419 0.713772 0.393067
429 5 0.240036 0.643662 0.385909
734 5 0.378092 0.719348 0.381203
919 1 0.423443 0.554368 0.395606
1033 1 0.403457 0.641405 0.34159
1064 1 0.478084 0.602229 0.364278
918 1 0.401462 0.539311 0.352621
715 2 0.416489 0.602485 0.357673
579 1 0.380055 0.619551 0.375042
124 2 0.398675 0.614828 0.396176
668 5 0.346958 0.551946 0.325188
9 1 0.496375 0.509143 0.376551
598 1 0.438365 0.662375 0.399109
1122 1 0.251063 0.942109 0.362882
1088 2 0.208042 0.899733 0.368334
286 1 0.23228 0.84023 0.366764
797 1 0.194388 0.901013 0.391385
89 1 0.151932 0.906747 0.357807
750 5 0.343511 0.878122 0.355734
416 1 0.047531 0.941176 0.352056
6 5 0.0258634 0.831586 0.350636
519 2 0.10543 0.953113 0.360726
747 1 0.103823 0.950683 0.383781
853 5 0.145887 0.805435 0.397101
679 1 0.301108 0.898484 0.392421
404 1 0.323623 0.780708 0.358119
1186 1 0.496636 0.94854 0.36004
697 5 0.368957 0.940075 0.377777
758 1 0.433571 0.874515 0.375709
52 5 0.364261 0.825107 0.387335
176 5 0.417046 0.745225 0.345927
914 1 0.493957 0.93932 0.393937
634 2 0.491231 0.904693 0.376094
84 3 0.257493 0.77595 0.36308
985 5 0.327363 0.523333 0.398107
969 1 0.492871 0.767082 0.36625
1062 5 0.478954 0.809381 0.398868
1059 1 0.0128161 0.507099 0.399876
1007 1 0.16672 0.611534 0.48292
12 5 0.0790926 0.750215 0.475245
1157 1 0.0959417 0.658642 0.459454
844 2 0.236329 0.752968 0.48897
531 1 0.224581 0.723031 0.422247
718 1 0.248966 0.625401 0.42222
620 2 0.204271 0.665528 0.430143
135 1 0.202161 0.661035 0.451545
1058 1 0.145997 0.655748 0.421378
670 1 0.149617 0.573113 0.451223
444 1 0.153055 0.530949 0.415836
445 3 0.148221 0.514328 0.437993
994 5 0.0393784 0.591353 0.432345
446 1 0.0436635 0.677964 0.413908
1137 2 0.104133 0.702398 0.413176
1169 2 0.153234 0.630331 0.462232
221 2 0.288883 0.818031 0.580303
11 1 0.173148 0.751853 0.485462
479 1 0.456833 0.994136 0.428696
1112 3 0.198843 0.57618 0.500484
310 5 0.290347 0.919623 0.548439
739 5 0.0870282 0.598333 0.404536
45 1 0.201423 0.507559 0.495347
1083 1 0.330964 0.639432 0.478039
213 5 0.354902 0.545068 0.480788
1002 1 0.265819 0.519998 0.468796
1018 2 0.298797 0.648487 0.496679
349 1 0.258223 0.698547 0.497789
1197 2 0.449537 0.752288 0.466769
749 1 0.395905 0.712578 0.467571
554 5 0.435337 0.659111 0.491318
238 1 0.476143 0.55668 0.43387
501 5 0.474414 0.656141 0.430032
499 1 0.417063 0.726921 0.430511
528 1 0.416388 0.613167 0.458823
1049 3 0.450715 0.552258 0.454675
1031 1 0.33059 0.656254 0.442964
789 1 0.302948 0.556484 0.438576
562 1 0.330817 0.740729 0.409048
847 1 0.351553 0.612459 0.411131
911 2 0.312032 0.61347 0.428514
740 2 0.271432 0.507593 0.447844
1038 2 0.367767 0.657571 0.461017
1156 3 0.262559 0.753795 0.405294
637 1 0.160898 0.981142 0.412329
426 1 0.0626335 0.857914 0.468683
1087 1 0.13318 0.959277 0.481122
167 5 0.148285 0.860482 0.485966
374 1 0.248325 0.894947 0.486456
705 2 0.238532 0.906876 0.445565
603 1 0.243929 0.908237 0.423917
475 5 0.027572 0.920245 0.426061
823 5 0.189433 0.765636 0.448395
180 5 0.0949093 0.859885 0.438815
35 1 0.108619 0.752066 0.42617
594 1 0.18202 0.933223 0.451541
988 2 0.137544 0.973982 0.460237
252 1 0.000500985 0.939348 0.484264
892 1 0.08066 0.966491 0.451822
997 5 0.0342965 0.780926 0.442609
334 1 0.106275 0.887146 0.411414
434 1 0.254612 0.802121 0.501566
234 3 0.362316 0.98394 0.590444
592 1 0.372111 0.839548 0.539184
70 2 0.00742965 0.879808 0.475712
877 1 0.442983 0.987474 0.494333
86 1 0.410835 0.997229 0.461119
183 2 0.250082 0.884932 0.403833
941 1 0.349642 0.951321 0.483926
764 1 0.341949 0.830264 0.470798
881 1 0.265938 0.757695 0.469942
1015 3 0.282297 0.951016 0.478034
294 1 0.437914 0.903673 0.473861
293 1 0.459498 0.769538 0.487227
952 2 0.430344 0.502451 0.581987
874 2 0.409759 0.958966 0.478343
140 1 0.391497 0.821321 0.417762
699 1 0.402813 0.923768 0.411129
958 3 0.398898 0.85845 0.462299
325 1 0.437672 0.805941 0.45563
277 1 0.479653 0.872771 0.427959
898 3 0.44769 0.973794 0.407238
356 2 0.416659 0.877853 0.425435
1034 1 0.38377 0.891726 0.44314
226 1 0.284949 0.942779 0.454249
138 1 0.326815 0.777545 0.441058
513 2 0.295348 0.802783 0.458026
980 5 0.346918 0.979549 0.433243
144 2 0.368123 0.765167 0.425205
942 1 0.249463 0.845471 0.452122
386 1 0.248334 0.820904 0.40697
361 5 0.00530807 0.603988 0.540858
1189 5 0.132554 0.691377 0.506046
549 1 0.0610138 0.665245 0.525678
1147 5 0.0744432 0.593342 0.506301
665 2 0.0201622 0.712727 0.526809
657 1 0.166932 0.586087 0.520944
618 5 0.252239 0.508469 0.525169
655 5 0.210484 0.658597 0.536898
120 1 0.23731 0.61191 0.56581
910 5 0.103188 0.594084 0.545575
182 1 0.15151 0.544095 0.569613
39 1 0.0578967 0.511582 0.537501
616 1 0.0349999 0.633718 0.571612
506 1 0.144078 0.641833 0.578762
1142 5 0.044642 0.540998 0.570621
820 2 0.0815125 0.664181 0.582214
751 1 0.168428 0.724542 0.551926
145 1 0.0824917 0.724267 0.572998
1061 2 0.186981 0.590622 0.578208
7 1 0.0172209 0.738973 0.506176
544 1 0.209527 0.578333 0.598117
305 1 0.497741 0.716991 0.459206
307 2 0.36801 0.705559 0.52519
678 1 0.344612 0.661178 0.511058
568 5 0.346573 0.557011 0.515908
168 1 0.263639 0.597738 0.502242
978 2 0.467392 0.523878 0.506843
283 1 0.402831 0.751172 0.515058
387 1 0.432206 0.56868 0.497647
581 1 0.415207 0.673442 0.536727
902 1 0.415379 0.669751 0.570599
181 1 0.434296 0.566952 0.585553
1170 2 0.443494 0.700527 0.554191
541 5 0.403816 0.583215 0.549652
281 1 0.312773 0.566519 0.545625
79 1 0.320067 0.716768 0.539248
1 1 0.333396 0.599378 0.579272
143 1 0.265017 0.517547 0.572712
1028 3 0.394332 0.624808 0.58641
534 2 0.291662 0.57558 0.565099
886 5 0.258584 0.72175 0.563495
268 1 0.45245 0.52283 0.528628
1023 1 0.287295 0.870187 0.593257
862 1 0.0104535 0.976536 0.537236
949 5 0.00942254 0.879819 0.520156
490 5 0.122014 0.840392 0.527563
1050 1 0.0913622 0.909011 0.50925
474 1 0.163108 0.98991 0.51323
576 2 0.113702 0.966605 0.501898
246 1 0.210427 0.876599 0.51998
702 1 0.0324087 0.764622 0.538832
841 5 0.237428 0.781295 0.536577
1116 1 0.227063 0.953646 0.589835
1141 1 0.21475 0.983481 0.546563
262 1 0.170818 0.756884 0.584683
727 3 0.0808863 0.872581 0.566326
860 2 0.0648933 0.981622 0.548185
451 5 0.151535 0.96554 0.569415
405 1 0.0936651 0.902608 0.586121
765 1 0.123314 0.818286 0.562124
399 5 0.184991 0.891051 0.548909
376 1 0.0889266 0.922599 0.550268
482 1 0.0188299 0.846425 0.56312
567 2 0.134063 0.757917 0.566785
816 1 0.250512 0.831311 0.564279
1115 1 0.274107 0.766579 0.591741
1113 1 0.493786 0.804669 0.520418
1011 2 0.257521 0.868484 0.505727
1184 1 0.315397 0.883004 0.514242
495 1 0.399704 0.93692 0.52904
1093 2 0.37558 0.880885 0.521753
41 1 0.267627 0.982747 0.516953
511 1 0.412301 0.852233 0.506772
83 2 0.443217 0.795652 0.506012
368 2 0.394144 0.816496 0.557867
414 1 0.461561 0.962856 0.558216
719 3 0.463878 0.956229 0.53496
1095 1 0.44567 0.773804 0.59412
315 1 0.428909 0.76298 0.554211
484 1 0.43763 0.8612 0.564287
450 2 0.431175 0.922195 0.571644
360 1 0.451133 0.921437 0.592312
731 1 0.349156 0.811691 0.57276
905 1 0.368867 0.938302 0.57284
815 2 0.138177 0.93131 0.401511
913 5 0.0996697 0.706051 0.661
68 1 0.222735 0.556875 0.631181
852 2 0.239917 0.69075 0.661728
99 2 0.495382 0.930427 0.607359
329 1 0.224949 0.646258 0.646397
950 2 0.185075 0.595107 0.642868
710 1 0.21991 0.750647 0.655429
1166 1 0.212352 0.668879 0.680384
627 1 0.0697935 0.614986 0.664551
819 1 0.0715093 0.645638 0.602698
1020 1 0.0309774 0.745909 0.632822
609 2 0.0831984 0.598833 0.617453
704 1 0.177245 0.562869 0.660566
891 1 0.100103 0.541927 0.608785
455 1 0.136462 0.614065 0.63068
955 1 0.0360434 0.586076 0.631929
393 5 0.141572 0.596769 0.686823
906 2 0.0327365 0.571516 0.654086
1104 1 0.0535035 0.511346 0.658241
931 1 0.290688 0.995975 0.640127
459 1 0.0136102 0.723952 0.666959
236 1 0.00984857 0.757127 0.600648
437 5 0.274021 0.588262 0.687769
483 1 0.451661 0.508112 0.621946
1008 1 0.418306 0.71812 0.653923
1191 1 0.474976 0.732286 0.624634
1074 2 0.419269 0.541879 0.637306
106 1 0.462896 0.573987 0.649255
119 1 0.390508 0.654884 0.606786
125 1 0.303937 0.696533 0.665549
1125 2 0.256631 0.567066 0.612682
186 2 0.352807 0.722819 0.65314
923 1 0.292596 0.619948 0.614423
733 1 0.294546 0.516694 0.610185
927 1 0.337699 0.692915 0.634502
363 1 0.376415 0.587693 0.631677
129 2 0.350265 0.640671 0.622713
17 2 0.49119 0.738144 0.603174
1180 5 0.359952 0.746712 0.60375
867 5 0.391485 0.855356 0.603071
1111 1 0.0728668 0.998117 0.601137
937 3 0.231528 0.909587 0.644249
442 2 0.234108 0.897854 0.600502
1167 2 0.218033 0.790635 0.638229
588 1 0.19686 0.759256 0.619891
653 1 0.239629 0.915099 0.621545
80 1 0.179605 0.842302 0.640166
712 1 0.105073 0.78974 0.610305
1067 2 0.168123 0.789103 0.603172
502 2 0.0136615 0.863173 0.643831
802 2 0.0430817 0.786193 0.616045
244 3 0.129198 0.893978 0.639864
324 1 0.172854 0.943735 0.648947
1124 2 0.0664281 0.932712 0.602989
1003 1 0.0747692 0.870114 0.651122
60 1 0.0989257 0.916525 0.620444
345 1 0.0203413 0.842863 0.623261
1123 1 0.346167 0.970154 0.612577
205 5 0.34849 0.865683 0.676118
104 5 0.263095 0.800386 0.679967
177 3 0.336128 0.83271 0.641586
217 1 0.277324 0.809602 0.63462
960 1 0.265187 0.888175 0.663153
1110 2 0.344028 0.96399 0.633991
1014 1 0.395812 0.992986 0.643664
1106 1 0.387616 0.789901 0.630045
338 1 0.476476 0.808678 0.648424
838 1 0.468504 0.955877 0.624774
491 2 0.440981 0.763513 0.640239
132 1 0.345134 0.783669 0.659973
908 1 0.346696 0.899072 0.638949
440 5 0.233998 0.688639 0.604738
521 1 0.191676 0.848723 0.600687
1046 1 0.000257568 0.925789 0.600455
285 1 0.725412 0.156523 0.391634
725 1 0.642589 0.0653885 0.375037
464 1 0.699838 0.13224 0.353839
1178 2 0.721899 0.209585 0.379306
1092 2 0.695549 0.0716479 0.361704
810 1 0.751787 0.0593356 0.372139
1016 5 0.590705 0.147445 0.374781
321 1 0.543048 0.0397782 0.370125
934 1 0.515375 0.219548 0.371174
1148 2 0.593556 0.027389 0.382232
757 1 0.527577 0.142563 0.345595
328 2 0.52962 0.203389 0.350672
688 1 0.69094 0.234046 0.338348
845 1 0.511839 0.0282336 0.333549
984 1 0.664592 0.223973 0.371201
121 5 0.590933 0.0761212 0.330596
267 1 0.586846 0.22901 0.348492
799 2 0.76008 0.317819 0.398682
903 1 0.689318 0.0262841 0.346648
385 5 0.762853 0.0469719 0.322805
1026 1 0.765817 0.213566 0.362087
614 1 0.983028 0.193172 0.35511
1073 2 0.816676 0.058817 0.37665
818 2 0.840672 0.115268 0.339196
330 1 0.89437 0.154964 0.337572
540 5 0.835519 0.179073 0.380008
957 1 0.950804 0.0509222 0.394319
992 5 0.972207 0.106592 0.365046
288 2 0.9345 0.20399 0.340212
1068 1 0.788724 0.150589 0.33274
990 1 0.837177 0.0957648 0.36012
107 1 0.851366 0.0634111 0.32688
585 3 0.732244 0.182819 0.343436
389 1 0.979535 0.219742 0.324961
341 1 0.950537 0.450817 0.38124
1163 1 0.824669 0.0800813 0.396348
1045 1 0.828499 0.330877 0.353817
1146 5 0.982221 0.229983 0.386938
555 1 0.746484 0.394076 0.346897
497 5 0.673184 0.402714 0.326092
216 1 0.64846 0.49521 0.361275
940 1 0.58152 0.328896 0.385462
729 1 0.638861 0.315633 0.356251
16 2 0.646281 0.252874 0.352318
396 1 0.738287 0.463799 0.379474
254 2 0.67233 0.460589 0.378107
77 1 0.652071 0.3998 0.3763
774 1 0.565081 0.397785 0.35857
1192 2 0.607138 0.35895 0.368597
428 1 0.612449 0.476314 0.328953
477 5 0.96703 0.388649 0.329471
649 1 0.650834 0.485158 0.397219
732 2 0.80304 0.464894 0.383158
676 1 0.76525 0.347603 0.379191
692 2 0.787753 0.37403 0.361284
745 3 0.904569 0.421792 0.364656
1010 1 0.879769 0.28099 0.381536
1096 1 0.739023 0.258223 0.393382
436 1 0.916429 0.453199 0.345359
299 1 0.924924 0.353599 0.362154
1200 1 0.83164 0.420892 0.36936
261 1 0.902439 0.253899 0.348649
947 2 0.882267 0.304323 0.361477
686 2 0.998496 0.490945 0.379941
835 1 0.958466 0.0171476 0.35176
921 5 0.929685 0.012822 0.318789
822 5 0.603913 0.248764 0.398539
1019 5 0.545579 0.102864 0.467424
1030 2 0.528886 0.237477 0.486013
146 1 0.577768 0.198072 0.479987
691 1 0.629979 0.115342 0.489358
713 1 0.647992 0.0162968 0.500707
613 2 0.637073 0.172054 0.478401
179 1 0.683555 0.204129 0.487853
469 5 0.738484 0.0527927 0.485406
783 1 0.680827 0.0604044 0.461342
2 1 0.616067 0.0912251 0.432751
454 1 0.64927 0.158494 0.457645
401 5 0.738807 0.206407 0.457334
128 5 0.605566 0.0050263 0.464856
489 1 0.717408 0.116791 0.434409
864 2 0.666541 0.104155 0.446623
795 5 0.676249 0.186437 0.417324
3 2 0.578206 0.096293 0.415096
30 1 0.514223 0.0999141 0.419227
115 1 0.517181 0.237927 0.407005
517 5 0.728089 0.0602421 0.406833
840 1 0.588232 0.0458621 0.402685
1109 1 0.502182 0.145358 0.523146
1175 1 0.59327 0.152884 0.405628
770 1 0.515966 0.00796809 0.458076
693 5 0.77313 0.230533 0.494756
478 1 0.788045 0.143301 0.476356
682 5 0.953994 0.11807 0.494903
253 5 0.891647 0.0439469 0.474089
622 2 0.846857 0.169815 0.47763
493 5 0.909756 0.131046 0.405675
116 1 0.861487 0.172911 0.498881
199 5 0.89087 0.0310435 0.418184
683 1 0.987593 0.246641 0.461568
782 1 0.841396 0.230314 0.469271
582 5 0.905525 0.217684 0.445983
1179 5 0.974539 0.137684 0.454657
522 5 0.781303 0.170671 0.417982
214 1 0.86373 0.213266 0.409198
829 1 0.885969 0.136894 0.465238
95 5 0.805362 0.0851045 0.448214
672 1 0.756171 0.258876 0.429713
737 2 0.766163 0.386113 0.589243
218 5 0.629285 0.381487 0.469017
1052 5 0.681148 0.29996 0.487125
1168 5 0.729325 0.426209 0.492509
546 2 0.60312 0.285985 0.443392
721 5 0.622427 0.394635 0.413182
593 3 0.660109 0.488313 0.455336
433 1 0.71883 0.3434 0.44628
312 1 0.652481 0.273986 0.429574
1004 2 0.752218 0.393898 0.453912
44 2 0.709934 0.301586 0.430215
57 1 0.626956 0.288248 0.462908
37 1 0.716655 0.342214 0.41243
669 1 0.707133 0.440249 0.45753
767 1 0.600387 0.473762 0.465654
586 1 0.584816 0.344458 0.436435
536 1 0.530824 0.465254 0.439562
1133 1 0.556326 0.24296 0.437833
863 2 0.537216 0.475118 0.460429
591 5 0.99358 0.358283 0.411629
976 5 0.51206 0.380418 0.413947
880 1 0.504793 0.428852 0.470495
297 1 0.82051 0.316916 0.405776
1091 1 0.782288 0.37492 0.47198
761 3 0.839139 0.38136 0.48545
476 5 0.907781 0.288139 0.484309
357 2 0.873867 0.488357 0.492764
263 1 0.89162 0.3698 0.471159
1138 1 0.933293 0.463177 0.494544
735 1 0.832057 0.441681 0.495692
636 1 0.861796 0.495516 0.427313
674 1 0.813143 0.444487 0.403629
64 2 0.805963 0.464488 0.423748
131 1 0.922555 0.294773 0.414579
1021 5 0.840489 0.29867 0.44376
1190 5 0.94747 0.460985 0.416544
1035 5 0.903872 0.44236 0.452335
103 1 0.792561 0.420197 0.439565
487 5 0.513453 0.0516613 0.551936
467 2 0.870275 0.27522 0.403639
364 1 0.99467 0.363193 0.497316
1121 2 0.564295 0.135788 0.528792
786 2 0.99734 0.459752 0.593667
164 1 0.591638 0.0839326 0.520219
58 1 0.693593 0.0947655 0.517542
901 2 0.640419 0.0769348 0.506209
304 1 0.59556 0.190287 0.523112
1041 1 0.569304 0.127794 0.550187
936 1 0.724389 0.0447305 0.59177
1139 1 0.646994 0.0964085 0.569366
53 1 0.681036 0.141385 0.596843
626 2 0.609995 0.147474 0.565405
210 5 0.723063 0.0533752 0.54591
339 2 0.697629 0.0952831 0.582279
43 5 0.697622 0.204312 0.533002
369 1 0.643237 0.197909 0.559059
971 1 0.684455 0.247894 0.589459
830 1 0.577496 0.166969 0.583113
350 2 0.562534 0.0245031 0.58986
250 2 0.533831 0.183869 0.597751
1195 1 0.512095 0.0663334 0.588247
1044 1 0.582959 0.00183542 0.570352
1154 5 0.776501 0.127673 0.5081
515 5 0.861645 0.103923 0.526631
408 1 0.956291 0.126064 0.527404
384 5 0.912118 0.223467 0.52187
224 1 0.799592 0.0348912 0.519364
1198 1 0.817763 0.178844 0.552855
157 1 0.901694 0.026282 0.582168
1005 1 0.83998 0.0764876 0.560162
332 1 0.955785 0.126999 0.564287
1187 2 0.876698 0.0227821 0.562589
809 2 0.981485 0.135609 0.584215
118 2 0.810214 0.131422 0.566873
147 1 0.921251 0.0119391 0.547149
570 1 0.938778 0.159001 0.598584
200 2 0.983741 0.145414 0.54592
273 1 0.835299 0.151257 0.585971
228 1 0.748386 0.122953 0.571556
871 3 0.995656 0.431338 0.490843
794 1 0.955363 0.0090701 0.510335
677 1 0.988658 0.210829 0.546903
801 1 0.563533 0.498582 0.549062
73 2 0.584471 0.255001 0.522788
152 1 0.625536 0.35938 0.595604
895 1 0.545378 0.400867 0.500276
427 2 0.599507 0.41373 0.511841
509 1 0.590365 0.400593 0.532326
878 1 0.551641 0.265607 0.504529
924 1 0.609572 0.476403 0.509307
235 1 0.639516 0.287206 0.522855
279 1 0.649055 0.377641 0.504061
899 1 0.729813 0.484441 0.515242
948 3 0.680033 0.34315 0.52221
431 2 0.686901 0.475572 0.585313
379 2 0.718285 0.459212 0.534357
720 1 0.739259 0.264625 0.559306
890 1 0.726059 0.434084 0.596605
831 2 0.621259 0.374454 0.574003
98 1 0.72745 0.337378 0.581768
203 2 0.693666 0.288172 0.57226
716 1 0.699879 0.397872 0.534633
391 1 0.655976 0.431482 0.572441
351 1 0.641677 0.320358 0.56514
189 1 0.771871 0.465583 0.54579
1119 3 0.551621 0.428435 0.549739
1056 1 0.53942 0.267095 0.537952
850 1 0.561587 0.389146 0.567859
1081 5 0.555087 0.270439 0.569458
172 1 0.668556 0.497147 0.541471
869 3 0.990553 0.27945 0.546235
612 1 0.744306 0.317318 0.51801
884 1 0.825317 0.27241 0.533866
843 5 0.925653 0.387065 0.523657
488 1 0.981421 0.299936 0.524753
825 2 0.805643 0.324841 0.523573
133 1 0.83489 0.340987 0.504766
18 1 0.800382 0.404073 0.571833
982 3 0.805384 0.246403 0.554615
1102 1 0.875472 0.453306 0.55377
769 1 0.84559 0.270031 0.571746
291 1 0.893642 0.35388 0.587104
1158 1 0.934751 0.258169 0.588833
623 1 0.981794 0.459761 0.572626
1100 2 0.819103 0.423646 0.551765
946 1 0.938544 0.311146 0.557879
742 2 0.902237 0.299446 0.575508
266 1 0.967831 0.465627 0.535039
529 1 0.817938 0.374095 0.53803
530 3 0.939183 0.481226 0.555848
726 1 0.866945 0.00379058 0.446395
746 1 0.989752 0.17064 0.417408
466 1 0.505429 0.282139 0.472851
557 2 0.501816 0.234928 0.428121
394 1 0.988844 0.0491775 0.477118
604 5 0.999302 0.267932 0.431325
300 2 0.569653 0.181233 0.649945
1043 1 0.630797 0.192822 0.653704
788 1 0.729758 0.168364 0.647435
354 2 0.69816 0.200054 0.60341
441 2 0.630374 0.00927331 0.621363
748 1 0.676369 0.211522 0.6231
875 1 0.613074 0.038646 0.602852
1152 1 0.659088 0.0469203 0.635213
122 5 0.730939 0.0877394 0.666248
656 2 0.685926 0.211615 0.644589
539 1 0.536591 0.129785 0.647337
1025 1 0.528587 0.141188 0.614345
240 1 0.547783 0.238498 0.60943
601 1 0.543938 0.233648 0.642481
448 5 0.740122 0.0910417 0.626718
615 1 0.93739 0.0117003 0.636841
932 1 0.818522 0.0287138 0.657862
56 1 0.806229 0.365273 0.60443
33 5 0.874564 0.0951492 0.646611
383 1 0.952706 0.164171 0.653028
93 1 0.964346 0.22367 0.623415
666 1 0.863433 0.220374 0.610693
975 5 0.924168 0.0715792 0.611157
335 1 0.832693 0.123303 0.621036
292 2 0.824997 0.168675 0.606879
1151 1 0.763467 0.193064 0.604914
38 3 0.505708 0.479412 0.611403
507 2 0.926467 0.220108 0.605727
355 1 0.715041 0.383794 0.647208
136 5 0.996027 0.323741 0.620904
223 1 0.627327 0.409814 0.625156
933 2 0.640327 0.351759 0.616037
642 2 0.722963 0.445065 0.642347
527 1 0.703068 0.329934 0.619275
457 2 0.732056 0.328146 0.639038
771 1 0.702744 0.27532 0.647924
1130 2 0.571844 0.436745 0.632451
641 1 0.566188 0.433544 0.653103
463 2 0.543232 0.27781 0.627178
1009 1 0.598483 0.313488 0.625936
193 1 0.516675 0.411529 0.622149
471 1 0.698219 0.497061 0.649701
430 5 0.788836 0.281081 0.613297
1182 5 0.9217 0.240089 0.671456
1080 2 0.874281 0.377493 0.606208
972 1 0.86797 0.438916 0.613314
1040 1 0.901359 0.321912 0.658534
963 1 0.856661 0.40804 0.648194
569 1 0.796457 0.325634 0.639939
65 1 0.887353 0.336409 0.623383
1132 2 0.843147 0.459559 0.634873
887 2 0.862167 0.3424 0.643383
675 1 0.77998 0.458102 0.633058
498 1 0.975793 0.409139 0.604906