ITEM: TIMESTEP
1800
ITEM: NUMBER OF ATOMS
1200
ITEM: BOX BOUNDS pp pp pp
-7.6266250050336382e-02 2.5098596345622489e+01
-7.6266250050336382e-02 2.5098596345622489e+01
-2.5251128845723162e+01 5.0273458941295317e+01
ITEM: ATOMS id type xs ys zs
760 1 0.0685229 0.146319 0.396433
419 1 0.250707 0.15794 0.369517
108 1 0.223124 0.0537414 0.357366
96 1 0.0426771 0.0534277 0.385624
635 5 0.30817 0.234903 0.32872
1076 1 0.194243 0.126213 0.338385
1193 1 0.118283 0.10862 0.367009
580 5 0.173945 0.212913 0.368624
269 2 0.0160535 0.234593 0.327367
638 5 0.151755 0.177113 0.317177
390 2 0.0918181 0.0949447 0.386279
645 3 0.161835 0.0753193 0.351658
967 1 0.0699896 0.216744 0.317962
542 1 0.144782 0.0727705 0.397934
804 1 0.23538 0.0135705 0.391086
1149 3 0.25246 0.118328 0.350417
787 1 0.413274 0.242371 0.350787
314 1 0.460776 0.187568 0.384894
590 2 0.489658 0.24912 0.382263
559 1 0.424624 0.0263416 0.356911
973 5 0.400298 0.141057 0.339562
468 2 0.412911 0.150608 0.391198
1174 1 0.3099 0.13708 0.339642
1037 1 0.391186 0.112056 0.375857
432 5 0.335024 0.191033 0.363337
196 2 0.38182 0.0499594 0.371327
762 1 0.134421 0.0134163 0.34917
465 1 0.321504 0.0318894 0.367531
907 1 0.398154 0.0198507 0.389619
290 1 0.362638 0.183524 0.398123
1146 5 0.0134134 0.205726 0.375168
26 5 0.283042 0.436816 0.325167
577 2 0.082011 0.455445 0.363165
82 1 0.196622 0.298175 0.352328
1173 1 0.0466558 0.304323 0.392658
40 5 0.104781 0.31631 0.338511
813 1 0.0205334 0.457019 0.368421
403 5 0.151972 0.342383 0.376715
1071 1 0.248147 0.329912 0.380996
834 1 0.116758 0.466709 0.381028
418 1 0.0155277 0.292893 0.337481
915 1 0.0981361 0.399324 0.354918
904 5 0.0263625 0.343358 0.364356
456 1 0.469198 0.342805 0.350239
917 2 0.437453 0.493644 0.391997
935 2 0.436802 0.292851 0.340877
893 5 0.325107 0.275083 0.391657
460 1 0.361722 0.428647 0.34404
1053 1 0.276659 0.371133 0.349392
565 5 0.291656 0.427624 0.378781
346 2 0.251971 0.318003 0.359882
703 2 0.398915 0.474685 0.354472
241 1 0.442167 0.293229 0.382801
373 1 0.393849 0.470763 0.376409
1171 1 0.460242 0.456315 0.350738
409 1 0.469999 0.39323 0.380135
1159 2 0.420354 0.354522 0.384988
412 2 0.342874 0.353735 0.350287
628 1 0.381941 0.328797 0.335884
660 1 0.308229 0.288356 0.355891
151 1 0.373241 0.362884 0.369704
690 3 0.493208 0.402163 0.357839
793 3 0.257989 0.00709769 0.369128
929 1 0.489535 0.263298 0.330881
575 1 0.215454 0.487496 0.388417
624 3 0.491458 0.00429686 0.356138
397 2 0.0319807 0.223005 0.474547
885 5 0.184427 0.230547 0.477641
1185 5 0.115852 0.149927 0.480354
88 1 0.0245081 0.161106 0.480128
28 1 0.211014 0.123669 0.490733
62 5 0.258568 0.0489883 0.447511
953 5 0.0897585 0.0328313 0.429841
1060 5 0.130082 0.217851 0.441403
137 5 0.177528 0.121647 0.444734
377 2 0.0553154 0.160789 0.417396
537 1 0.221357 0.0697952 0.420324
15 5 0.0679197 0.0499662 0.463572
353 1 0.0579884 0.226665 0.41734
1024 1 0.0999296 0.138742 0.430445
1070 2 0.191548 0.0337689 0.406046
20 1 0.156924 0.0285185 0.456116
991 5 0.338183 0.117367 0.599308
1054 5 0.0171166 0.351042 0.463053
472 1 0.260274 0.035651 0.478776
75 1 0.320521 0.112781 0.491866
375 2 0.264801 0.0982336 0.480653
206 1 0.263329 0.24305 0.492602
407 1 0.489084 0.219928 0.498704
247 5 0.421127 0.104916 0.475179
378 2 0.46127 0.0287921 0.445421
516 1 0.456312 0.0949252 0.443323
406 1 0.467974 0.19069 0.425821
91 1 0.428859 0.110992 0.40778
920 2 0.467422 0.125115 0.424346
211 5 0.331241 0.05318 0.407677
858 1 0.280554 0.186377 0.433329
443 2 0.316336 0.147965 0.445667
14 1 0.338444 0.0944975 0.436041
322 5 0.361551 0.244882 0.424472
968 1 0.272842 0.132995 0.462075
72 1 0.3662 0.180892 0.454488
32 5 0.288079 0.273499 0.45048
922 5 0.362423 0.230313 0.480972
706 1 0.431139 0.480716 0.56247
545 2 0.227197 0.0122169 0.520437
372 1 0.35722 0.329087 0.598047
977 1 0.276643 0.271426 0.52849
640 1 0.0514241 0.0102484 0.567381
1017 1 0.0914119 0.234782 0.468207
535 1 0.272347 0.431655 0.531081
880 1 0.499862 0.424136 0.471369
779 5 0.126736 0.43836 0.474431
227 1 0.442754 0.285119 0.583822
242 1 0.0126644 0.262195 0.491166
754 1 0.0212959 0.454837 0.470455
78 5 0.133683 0.307425 0.483005
34 1 0.230413 0.425257 0.481687
663 1 0.106632 0.358734 0.457727
1079 5 0.231558 0.432995 0.411832
435 1 0.182881 0.300669 0.443278
871 3 0.00604091 0.437262 0.491631
208 1 0.217337 0.489846 0.436294
827 1 0.0918297 0.318637 0.42425
689 2 0.134608 0.341749 0.439475
722 1 0.0884192 0.473492 0.44294
1128 2 0.0261215 0.464232 0.449077
249 2 0.085436 0.277392 0.407735
265 1 0.162601 0.391613 0.429605
741 5 0.0724739 0.420951 0.412796
188 5 0.224961 0.330118 0.41433
382 5 0.220701 0.21553 0.41079
533 1 0.143797 0.259434 0.401656
998 1 0.392239 0.357534 0.404079
102 5 0.48329 0.353305 0.449127
1078 1 0.378271 0.41921 0.472589
564 2 0.373288 0.37239 0.488058
139 5 0.253134 0.334413 0.488533
547 1 0.2998 0.49054 0.496708
561 1 0.346693 0.320106 0.478758
256 2 0.245455 0.487141 0.486151
447 2 0.480052 0.412521 0.491404
4 1 0.436394 0.366224 0.495282
204 1 0.450581 0.465737 0.499887
608 1 0.458503 0.45892 0.409067
696 5 0.447188 0.23859 0.458249
996 1 0.458501 0.295694 0.428421
1039 5 0.239303 0.388853 0.451075
109 1 0.312676 0.33648 0.426502
694 1 0.310216 0.457955 0.449678
494 2 0.354553 0.381869 0.419674
308 1 0.38992 0.401939 0.436761
633 1 0.326185 0.431977 0.411039
410 2 0.373472 0.442092 0.452366
340 1 0.37218 0.467463 0.59198
966 1 0.377717 0.445784 0.534197
784 2 0.434637 0.465812 0.541893
348 5 0.488889 0.322913 0.560374
550 1 0.136044 0.115576 0.519002
574 5 0.0428589 0.122576 0.511672
1155 1 0.125713 0.220381 0.504434
520 2 0.196608 0.128168 0.512095
811 1 0.230742 0.0788638 0.520597
643 1 0.223604 0.183242 0.519111
785 1 0.106589 0.0952198 0.581775
857 1 0.203417 0.0562022 0.581661
303 1 0.478667 0.420094 0.538486
114 2 0.237128 0.012412 0.593474
1089 1 0.0100852 0.0804054 0.589849
1006 1 0.0563194 0.135857 0.544388
738 3 0.0790699 0.222269 0.590794
647 2 0.167289 0.110717 0.577159
192 1 0.169093 0.11101 0.555027
632 1 0.0257756 0.183932 0.584209
897 2 0.0625739 0.0483045 0.58439
826 3 0.114833 0.101511 0.540778
680 1 0.104211 0.0334491 0.540748
548 1 0.191732 0.158691 0.588557
803 5 0.204524 0.197844 0.55027
219 1 0.119754 0.227016 0.571937
10 1 0.269318 0.225766 0.588483
558 5 0.259048 0.337271 0.597534
100 2 0.32873 0.407999 0.526001
479 1 0.454093 0.0126783 0.424825
296 1 0.0688109 0.0197157 0.497695
23 1 0.349358 0.093645 0.525223
298 2 0.269853 0.226658 0.513033
101 1 0.324663 0.191975 0.513479
854 2 0.352785 0.135823 0.509159
470 2 0.459366 0.186685 0.514129
413 1 0.43614 0.225303 0.529151
684 1 0.4827 0.0170693 0.522333
833 1 0.413949 0.150037 0.505271
81 1 0.421167 0.0188771 0.589563
961 2 0.448958 0.0767343 0.587639
900 3 0.423613 0.219177 0.592625
945 5 0.488698 0.205687 0.555652
42 1 0.485116 0.188159 0.587697
1161 1 0.428427 0.103549 0.569298
1066 5 0.379775 0.160613 0.547429
596 1 0.295724 0.177509 0.55785
1199 2 0.311598 0.224066 0.572183
220 1 0.299714 0.0161381 0.587973
646 5 0.269294 0.0859401 0.548774
837 5 0.365755 0.0393291 0.549263
438 1 0.368159 0.207333 0.579294
1117 5 0.1271 0.372361 0.592984
474 1 0.17126 0.00124096 0.510214
1001 2 0.131016 0.272468 0.517139
92 1 0.0784595 0.308822 0.512209
916 1 0.043663 0.476242 0.506311
605 1 0.181661 0.305714 0.510853
424 2 0.0175199 0.311258 0.505345
798 5 0.192829 0.412193 0.511717
1013 1 0.340316 0.391805 0.505481
317 3 0.222812 0.463439 0.585705
611 1 0.234455 0.34063 0.549877
215 1 0.192648 0.41774 0.571583
367 5 0.0504542 0.394866 0.532882
366 1 0.0467326 0.294966 0.555513
759 1 0.140818 0.32891 0.563968
231 2 0.107854 0.275423 0.558297
153 1 0.130616 0.25925 0.538397
395 5 0.361671 0.0142504 0.510058
127 1 0.144599 0.403268 0.541076
352 1 0.0715196 0.470971 0.593134
174 2 0.181296 0.373409 0.555804
439 5 0.0837551 0.461358 0.558445
364 1 0.00823061 0.371354 0.497023
652 5 0.400233 0.298314 0.55191
930 2 0.497105 0.0232312 0.500962
1099 1 0.412407 0.379597 0.572602
952 2 0.428655 0.489378 0.583439
812 2 0.415066 0.342119 0.59011
1118 1 0.275055 0.425359 0.595198
943 5 0.488686 0.323413 0.520135
1057 1 0.3097 0.282954 0.562888
1194 5 0.330749 0.43835 0.561278
861 1 0.484915 0.478493 0.594637
105 2 0.290736 0.310826 0.544331
1105 1 0.333679 0.351395 0.536647
786 2 0.00464147 0.460617 0.592368
851 1 0.405044 0.499414 0.45129
487 5 0.492126 0.0605299 0.550159
130 5 0.00370347 0.350125 0.580202
557 2 0.497151 0.248439 0.423282
309 5 0.266941 0.138527 0.402198
1111 1 0.087821 0.00630395 0.599021
556 1 0.174752 0.485276 0.599508
392 1 2.10212e-05 0.415666 0.438379
123 1 0.246977 0.152855 0.65074
610 1 0.249932 0.179251 0.617413
1131 5 0.149275 0.0168193 0.673818
142 1 0.172248 0.111318 0.674623
711 5 0.113422 0.0556786 0.625603
700 1 0.145444 0.146051 0.641621
359 1 0.209452 0.0611295 0.646208
1126 1 0.105455 0.188668 0.609996
47 2 0.109523 0.192847 0.631447
94 1 0.0487046 0.195487 0.640156
230 2 0.191365 0.120619 0.654846
909 5 0.0289699 0.282338 0.651198
986 1 0.229269 0.0270358 0.613931
524 1 0.497778 0.305155 0.630045
518 1 0.0743877 0.287065 0.600754
1094 2 0.255187 0.0402908 0.632658
1072 1 0.453639 0.165255 0.636951
753 1 0.470098 0.0598924 0.636475
209 1 0.404783 0.225204 0.614555
255 1 0.345621 0.175872 0.636678
365 1 0.295413 0.0905407 0.628629
111 2 0.403384 0.206426 0.635204
651 2 0.285183 0.155251 0.633487
415 1 0.429294 0.109081 0.604916
525 2 0.478405 0.364845 0.62503
1042 2 0.495766 0.117766 0.634391
1085 2 0.116402 0.491445 0.606958
344 1 0.457565 0.365433 0.604935
458 1 0.144863 0.249497 0.635536
51 1 0.158294 0.408552 0.654286
343 1 0.248386 0.293705 0.630773
1114 2 0.185548 0.290087 0.625117
1145 1 0.0733145 0.362551 0.640401
1183 5 0.244887 0.351089 0.657466
870 1 0.164065 0.352397 0.624242
631 1 0.111245 0.445926 0.623745
1069 2 0.127319 0.393194 0.636013
639 5 0.245945 0.45675 0.657678
551 1 0.187509 0.259442 0.60615
136 5 0.00580506 0.320927 0.619092
1000 1 0.343686 0.409655 0.655907
54 1 0.401487 0.495756 0.644612
71 2 0.379837 0.435103 0.640442
999 1 0.407782 0.250393 0.650401
31 5 0.34551 0.320942 0.632406
607 2 0.320009 0.461922 0.604735
202 5 0.442256 0.337577 0.662939
956 1 0.344107 0.436667 0.622443
1150 1 0.433579 0.395222 0.636586
50 5 0.0924624 0.483625 0.666201
69 2 0.219487 0.205889 0.600102
370 1 0.0929372 0.510584 0.351939
388 1 0.229963 0.734303 0.391604
1136 1 0.17999 0.719246 0.359407
853 5 0.115494 0.797904 0.391697
634 2 0.490288 0.906868 0.381516
1101 1 0.145821 0.564493 0.380432
763 1 0.0825918 0.742151 0.361017
708 1 0.108557 0.637092 0.35532
85 1 0.0386134 0.571964 0.376924
839 2 0.124456 0.697304 0.364425
572 2 0.158321 0.507573 0.391247
1144 3 0.0975609 0.571122 0.363707
914 1 0.485781 0.955492 0.395341
1135 1 0.12121 0.685247 0.38619
429 5 0.225138 0.642555 0.382363
734 5 0.31589 0.695429 0.383603
1186 1 0.483308 0.93492 0.362269
1033 1 0.40482 0.648612 0.341601
1064 1 0.475602 0.591088 0.358675
918 1 0.389815 0.536405 0.348785
715 2 0.410876 0.599013 0.354997
579 1 0.379884 0.608623 0.373963
124 2 0.392943 0.608355 0.395425
668 5 0.469923 0.703203 0.327222
84 3 0.230156 0.754729 0.368569
9 1 0.488397 0.5192 0.38137
1122 1 0.237885 0.942099 0.360902
1088 2 0.200561 0.896181 0.368732
286 1 0.215389 0.831262 0.367291
797 1 0.193694 0.906979 0.391317
89 1 0.143731 0.901628 0.358634
750 5 0.292644 0.827816 0.338653
416 1 0.0513454 0.946881 0.352541
6 5 0.0530887 0.843023 0.365848
519 2 0.111143 0.961142 0.358155
747 1 0.120717 0.969334 0.380378
500 5 0.456878 0.93116 0.327929
679 1 0.294075 0.886569 0.391491
404 1 0.293369 0.755345 0.360402
176 5 0.373078 0.729044 0.351218
697 5 0.370604 0.926865 0.374947
758 1 0.438937 0.867802 0.385075
52 5 0.362098 0.819965 0.385672
985 5 0.304519 0.518771 0.398172
815 2 0.136714 0.936054 0.398091
422 5 0.0124401 0.681443 0.361264
598 1 0.446025 0.644288 0.396683
919 1 0.406199 0.545818 0.399623
1007 1 0.152125 0.603632 0.482495
12 5 0.092869 0.71964 0.477072
1157 1 0.0792873 0.636423 0.461816
844 2 0.228849 0.755721 0.488359
531 1 0.214486 0.731009 0.428476
718 1 0.24785 0.6337 0.42408
620 2 0.199071 0.669221 0.431258
135 1 0.180643 0.65718 0.45292
1058 1 0.146127 0.653665 0.419888
670 1 0.145847 0.559882 0.449465
444 1 0.142079 0.512416 0.412166
445 3 0.148755 0.50034 0.435556
994 5 0.0306534 0.589904 0.435686
446 1 0.0430963 0.658166 0.409456
1137 2 0.10269 0.685038 0.407538
1169 2 0.138791 0.613573 0.461669
221 2 0.290642 0.824269 0.580292
11 1 0.165831 0.754897 0.491837
685 2 0.0150687 0.506528 0.523331
1112 3 0.194365 0.579103 0.49851
310 5 0.299159 0.925393 0.54711
739 5 0.0459575 0.555556 0.410202
45 1 0.192964 0.509663 0.497091
1083 1 0.332843 0.638422 0.475307
213 5 0.364619 0.542136 0.477728
1002 1 0.251913 0.521068 0.467289
1018 2 0.301575 0.647611 0.493452
349 1 0.260335 0.699596 0.492841
1197 2 0.451322 0.749559 0.467679
749 1 0.400864 0.707763 0.466349
554 5 0.437615 0.662747 0.496616
238 1 0.474979 0.553099 0.429884
501 5 0.472365 0.659201 0.432063
499 1 0.410633 0.72686 0.426454
528 1 0.418165 0.608599 0.456912
1049 3 0.453349 0.55089 0.451275
1031 1 0.337033 0.650994 0.44132
789 1 0.300822 0.554337 0.436745
562 1 0.315924 0.75038 0.411684
847 1 0.34088 0.618126 0.40815
911 2 0.30586 0.611277 0.42729
740 2 0.27009 0.507209 0.446991
1038 2 0.372669 0.654077 0.459113
1156 3 0.246471 0.763252 0.410848
637 1 0.157732 0.980739 0.41151
426 1 0.072512 0.853838 0.464058
1087 1 0.131747 0.956589 0.480191
167 5 0.134231 0.849258 0.490394
374 1 0.244954 0.910331 0.487257
705 2 0.241576 0.915154 0.4442
603 1 0.245445 0.923841 0.422435
475 5 0.0243048 0.900227 0.429136
823 5 0.155387 0.7702 0.447605
180 5 0.105979 0.870243 0.43472
35 1 0.09997 0.744728 0.416709
594 1 0.180763 0.924257 0.450739
988 2 0.138137 0.966142 0.458967
252 1 0.0148959 0.933237 0.483743
892 1 0.0797241 0.959988 0.449513
997 5 0.0408321 0.774884 0.439069
334 1 0.0973064 0.889476 0.402932
434 1 0.250821 0.808208 0.499351
234 3 0.360234 0.984687 0.591943
592 1 0.368883 0.84001 0.53668
70 2 0.0233628 0.873129 0.476362
342 5 0.158773 0.505373 0.538957
257 3 0.00338148 0.997221 0.491731
183 2 0.244429 0.888588 0.404634
941 1 0.351135 0.970864 0.482706
764 1 0.328493 0.830802 0.472999
881 1 0.242688 0.767646 0.467752
1015 3 0.280394 0.969246 0.481306
294 1 0.429747 0.902583 0.47311
293 1 0.456028 0.768025 0.488331
1062 5 0.489747 0.790781 0.401584
874 2 0.411097 0.963845 0.475593
140 1 0.379331 0.825231 0.41952
699 1 0.39126 0.933739 0.414009
958 3 0.388542 0.853205 0.463532
325 1 0.429951 0.800958 0.456154
277 1 0.468616 0.872746 0.428517
898 3 0.43207 0.985993 0.405513
356 2 0.405141 0.881035 0.425908
1034 1 0.373362 0.88981 0.444633
226 1 0.276955 0.954891 0.455904
138 1 0.326622 0.773578 0.444723
513 2 0.28751 0.805934 0.458426
980 5 0.342323 0.991276 0.436915
144 2 0.360128 0.766188 0.426079
942 1 0.256668 0.853461 0.447888
386 1 0.231846 0.829701 0.4109
318 1 0.0204506 0.832879 0.493585
1189 5 0.151117 0.701579 0.521928
549 1 0.0711354 0.68068 0.53448
1147 5 0.0820422 0.598246 0.507773
665 2 0.0219386 0.721684 0.529817
657 1 0.17429 0.595641 0.519707
618 5 0.247029 0.522906 0.527208
655 5 0.230975 0.658778 0.537545
120 1 0.229197 0.598645 0.564716
910 5 0.11311 0.603478 0.545073
182 1 0.149397 0.53514 0.569766
39 1 0.0618874 0.525794 0.537146
616 1 0.0316593 0.633537 0.575086
506 1 0.137166 0.632324 0.578406
1142 5 0.0313013 0.54222 0.56949
820 2 0.081194 0.6628 0.584304
751 1 0.173228 0.730133 0.55221
145 1 0.0857834 0.722104 0.575651
1061 2 0.18203 0.583364 0.578456
544 1 0.212916 0.583891 0.597279
7 1 0.0173719 0.736494 0.50829
1180 5 0.374815 0.739998 0.598433
307 2 0.36371 0.70209 0.525579
678 1 0.345782 0.661459 0.509051
568 5 0.338003 0.548609 0.516559
168 1 0.261853 0.598497 0.497421
978 2 0.462 0.524167 0.508567
283 1 0.400113 0.747911 0.515983
387 1 0.418099 0.565129 0.501718
581 1 0.407976 0.672417 0.53773
902 1 0.412731 0.662596 0.571811
181 1 0.42245 0.556912 0.585351
1170 2 0.435229 0.699417 0.55569
541 5 0.401163 0.586444 0.551112
281 1 0.314762 0.563084 0.547989
79 1 0.315184 0.721426 0.537808
1 1 0.323334 0.600763 0.580574
143 1 0.266404 0.509471 0.573698
1028 3 0.38946 0.618047 0.586658
534 2 0.286766 0.568056 0.566606
886 5 0.260265 0.715935 0.565457
268 1 0.455336 0.517384 0.530169
1023 1 0.289663 0.866715 0.596705
862 1 0.0157526 0.97284 0.536101
949 5 0.0139026 0.880594 0.522425
490 5 0.126056 0.841859 0.524977
1050 1 0.0969016 0.924909 0.51115
170 1 0.0200944 0.990468 0.412518
576 2 0.119279 0.977068 0.500412
246 1 0.208712 0.88049 0.519833
702 1 0.029177 0.777317 0.541766
841 5 0.23889 0.793542 0.538541
1116 1 0.221096 0.949116 0.591922
1141 1 0.230817 0.994334 0.541067
262 1 0.17315 0.752766 0.586331
727 3 0.0851618 0.878266 0.566742
860 2 0.0677408 0.985297 0.54766
451 5 0.169978 0.983979 0.563637
405 1 0.086444 0.903255 0.588189
765 1 0.116168 0.817959 0.564896
399 5 0.194484 0.905223 0.548813
376 1 0.102039 0.931907 0.552371
482 1 0.0176594 0.865548 0.559343
567 2 0.136785 0.755356 0.567985
816 1 0.250181 0.841847 0.564885
1115 1 0.283343 0.766742 0.589431
1113 1 0.485861 0.809456 0.52211
1011 2 0.25343 0.871211 0.504289
1184 1 0.309277 0.886712 0.514802
495 1 0.396055 0.937851 0.526792
1093 2 0.371319 0.881774 0.520039
41 1 0.275712 0.989981 0.509219
511 1 0.409079 0.851036 0.505603
83 2 0.439501 0.79403 0.507475
368 2 0.393439 0.819969 0.55562
414 1 0.452476 0.971089 0.556748
719 3 0.458116 0.962501 0.533161
1095 1 0.459219 0.768431 0.5867
315 1 0.415125 0.760039 0.553251
484 1 0.433002 0.868695 0.561235
450 2 0.429173 0.926767 0.569935
360 1 0.455236 0.915959 0.589003
731 1 0.34817 0.820954 0.570613
905 1 0.366404 0.939797 0.57338
877 1 0.450876 0.992845 0.48999
86 1 0.416531 0.999707 0.457805
805 5 0.499402 0.776328 0.43444
178 1 0.499899 0.696096 0.553287
913 5 0.122212 0.674981 0.668552
68 1 0.216949 0.55503 0.633235
852 2 0.239739 0.6961 0.664885
908 1 0.348083 0.894797 0.639007
329 1 0.229974 0.645142 0.65125
950 2 0.187377 0.59826 0.64734
710 1 0.223968 0.75073 0.654605
1166 1 0.208744 0.685617 0.682562
627 1 0.0462888 0.595629 0.670459
819 1 0.0783275 0.649541 0.6055
1020 1 0.0526407 0.750909 0.638808
609 2 0.0838279 0.607442 0.622587
704 1 0.175356 0.567069 0.665541
891 1 0.0994115 0.55036 0.613393
455 1 0.135075 0.620433 0.636166
955 1 0.0294996 0.602206 0.634896
393 5 0.114126 0.575881 0.691812
906 2 0.00633987 0.581156 0.654161
1104 1 0.00188114 0.51594 0.652559
99 2 0.49617 0.928764 0.605103
282 5 0.47675 0.646456 0.6291
459 1 0.0488524 0.725428 0.674954
437 5 0.314617 0.698675 0.703611
483 1 0.465938 0.54747 0.624819
1008 1 0.415314 0.723299 0.649864
1191 1 0.476944 0.743793 0.619942
1074 2 0.424789 0.555296 0.642347
106 1 0.462361 0.58143 0.656763
119 1 0.389095 0.645124 0.608733
125 1 0.304673 0.697149 0.668614
1125 2 0.250485 0.566543 0.614984
186 2 0.349595 0.721773 0.653596
923 1 0.291156 0.614732 0.619492
733 1 0.288886 0.516089 0.609637
927 1 0.331191 0.696244 0.634485
363 1 0.376093 0.595643 0.639069
129 2 0.348211 0.640491 0.625551
521 1 0.191198 0.847544 0.600602
132 1 0.340694 0.787048 0.655813
867 5 0.383861 0.865298 0.601648
1103 2 0.461564 0.996713 0.640357
937 3 0.242988 0.936852 0.646935
442 2 0.233442 0.895718 0.604072
1167 2 0.214831 0.795848 0.639007
588 1 0.187416 0.762602 0.621745
653 1 0.238394 0.915919 0.624431
80 1 0.169863 0.842595 0.642402
712 1 0.100747 0.790577 0.607945
1067 2 0.162944 0.789994 0.603391
502 2 0.0226295 0.872127 0.648341
802 2 0.0464303 0.785238 0.620568
244 3 0.133294 0.900065 0.641304
324 1 0.174315 0.949616 0.650691
1124 2 0.0721319 0.943553 0.60402
1003 1 0.0777369 0.895108 0.655459
60 1 0.10563 0.926168 0.621965
345 1 0.0315983 0.843466 0.629013
1123 1 0.351599 0.961389 0.613071
205 5 0.348567 0.859016 0.677537
104 5 0.179761 0.90135 0.682058
177 3 0.337537 0.828698 0.636942
217 1 0.271577 0.814487 0.630849
960 1 0.266933 0.901674 0.664862
1110 2 0.347323 0.958259 0.634707
1014 1 0.397304 0.986646 0.643646
1106 1 0.395074 0.801822 0.626919
338 1 0.479315 0.80404 0.650285
838 1 0.473228 0.957912 0.622844
491 2 0.443176 0.769261 0.636953
1046 1 0.00847094 0.94448 0.603932
440 5 0.252102 0.703032 0.607709
1065 2 0.019885 0.754734 0.657814
425 1 0.0113656 0.81869 0.661738
931 1 0.288085 0.99016 0.640487
285 1 0.698709 0.136118 0.387905
725 1 0.639087 0.0505598 0.365329
464 1 0.701098 0.121416 0.347144
1178 2 0.697547 0.193612 0.378122
1092 2 0.693287 0.0608059 0.353969
810 1 0.74435 0.0505722 0.367396
1016 5 0.55595 0.139205 0.368882
321 1 0.531931 0.0428364 0.370032
934 1 0.523228 0.249513 0.364409
1148 2 0.591625 0.0291848 0.378159
517 5 0.701277 0.03905 0.396306
328 2 0.52411 0.224083 0.344028
688 1 0.691233 0.231465 0.335915
840 1 0.596792 0.0600933 0.397348
984 1 0.649114 0.215196 0.366136
121 5 0.553931 0.0984291 0.325924
267 1 0.587707 0.231409 0.337931
799 2 0.748774 0.298227 0.393359
903 1 0.694763 0.0209604 0.338008
807 5 0.574575 0.433037 0.325855
1026 1 0.749026 0.198845 0.36389
649 1 0.654293 0.466357 0.399503
1073 2 0.805553 0.0636784 0.372362
818 2 0.83492 0.118084 0.335724
330 1 0.896535 0.142391 0.332787
540 5 0.835745 0.181971 0.380131
957 1 0.940153 0.0395354 0.395506
992 5 0.954339 0.105451 0.363015
288 2 0.934727 0.193952 0.332735
1068 1 0.794578 0.164799 0.331561
990 1 0.832258 0.0972695 0.35623
107 1 0.82975 0.0651773 0.323454
585 3 0.733583 0.18053 0.341033
389 1 0.964726 0.220691 0.314704
341 1 0.930168 0.41781 0.383468
1163 1 0.818603 0.0948043 0.391466
1045 1 0.82899 0.314737 0.351288
845 1 0.523797 0.00571969 0.336
555 1 0.754906 0.393491 0.346329
497 5 0.727776 0.477151 0.336267
1032 1 0.834581 0.00389858 0.371916
940 1 0.580475 0.339965 0.386738
729 1 0.625784 0.312203 0.354299
16 2 0.641221 0.250122 0.347586
396 1 0.743772 0.452044 0.380731
254 2 0.678566 0.450955 0.38071
77 1 0.65458 0.393642 0.375626
774 1 0.560257 0.395701 0.357434
1192 2 0.602171 0.358806 0.3678
159 2 0.99753 0.0111258 0.393385
477 5 0.974013 0.397269 0.334678
822 5 0.610373 0.252494 0.395116
732 2 0.806068 0.446428 0.3853
676 1 0.751118 0.324074 0.374275
692 2 0.7857 0.354412 0.358969
745 3 0.896597 0.404792 0.364259
1010 1 0.883712 0.269678 0.377553
1096 1 0.71289 0.241324 0.392493
436 1 0.899079 0.448475 0.347369
299 1 0.924002 0.342769 0.35702
1200 1 0.825705 0.398747 0.371257
261 1 0.907711 0.243485 0.344396
947 2 0.888012 0.290782 0.357271
686 2 0.969332 0.470619 0.382887
835 1 0.970399 0.0253628 0.346175
921 5 0.944629 0.0479208 0.318507
614 1 0.992844 0.189468 0.342436
21 5 0.874615 0.00121605 0.343795
757 1 0.503257 0.162915 0.343022
467 2 0.872099 0.273584 0.399497
385 5 0.765901 0.00430952 0.313777
216 1 0.659057 0.495163 0.366311
1175 1 0.592912 0.161692 0.399443
1019 5 0.558718 0.103825 0.464708
1030 2 0.536729 0.251563 0.488262
146 1 0.57696 0.205314 0.48029
691 1 0.634622 0.120891 0.488828
713 1 0.652169 0.025326 0.500535
613 2 0.636418 0.179645 0.47837
179 1 0.682103 0.219729 0.486933
469 5 0.731629 0.0480292 0.48026
783 1 0.682859 0.0624866 0.454671
2 1 0.633031 0.106599 0.427722
454 1 0.647751 0.161825 0.457159
401 5 0.739757 0.207508 0.457989
128 5 0.602299 0.0286879 0.470373
489 1 0.731512 0.131727 0.435519
864 2 0.675012 0.116597 0.443521
795 5 0.664142 0.194726 0.415932
3 2 0.589339 0.109991 0.41157
30 1 0.528607 0.112119 0.420644
115 1 0.513309 0.253226 0.402146
944 1 0.642919 0.485635 0.5961
190 1 0.753976 0.495065 0.425795
736 5 0.815108 0.0381672 0.595656
664 1 0.645234 0.495326 0.433257
770 1 0.517786 0.0184414 0.455298
693 5 0.775225 0.253129 0.490315
478 1 0.785446 0.137429 0.477161
682 5 0.949214 0.116148 0.492947
253 5 0.878181 0.0285935 0.471058
622 2 0.845021 0.16535 0.476077
493 5 0.913124 0.120411 0.409667
116 1 0.863071 0.177473 0.496406
199 5 0.849272 0.0172367 0.407011
683 1 0.98998 0.237031 0.458496
782 1 0.839003 0.219933 0.464603
582 5 0.925634 0.195781 0.43963
1179 5 0.979442 0.113903 0.45506
522 5 0.775989 0.158802 0.410497
214 1 0.879337 0.214225 0.406672
829 1 0.882879 0.121823 0.46651
95 5 0.808218 0.0831605 0.448996
672 1 0.744937 0.253947 0.429376
737 2 0.766757 0.375609 0.586162
218 5 0.60368 0.368535 0.470079
1052 5 0.682781 0.313666 0.481195
1168 5 0.738677 0.451166 0.488018
546 2 0.600001 0.296239 0.439456
721 5 0.622109 0.387114 0.41045
593 3 0.659242 0.480668 0.455791
433 1 0.71351 0.344103 0.444127
312 1 0.647789 0.28638 0.425119
1004 2 0.748659 0.385769 0.455073
44 2 0.708033 0.304694 0.427449
57 1 0.625006 0.282767 0.45884
37 1 0.722551 0.335067 0.40892
669 1 0.704121 0.430256 0.46
767 1 0.595329 0.469522 0.466394
586 1 0.580195 0.3566 0.438047
536 1 0.525317 0.462771 0.440411
1133 1 0.550311 0.255171 0.435135
863 2 0.531891 0.470307 0.461489
591 5 0.988394 0.374335 0.407561
1044 1 0.580035 0.00342924 0.567465
976 5 0.513707 0.374943 0.41516
250 2 0.535137 0.178123 0.599314
1091 1 0.777268 0.363599 0.472443
761 3 0.841813 0.366196 0.48104
476 5 0.915477 0.267562 0.476838
357 2 0.880852 0.483361 0.498181
263 1 0.890775 0.352913 0.466815
1138 1 0.942378 0.462113 0.495688
735 1 0.847862 0.429384 0.491421
636 1 0.856673 0.490779 0.436543
674 1 0.814583 0.438536 0.406403
64 2 0.805161 0.458795 0.427369
131 1 0.906095 0.315694 0.41166
1021 5 0.834189 0.263542 0.437209
1190 5 0.898439 0.400375 0.428474
1035 5 0.919114 0.462644 0.459225
103 1 0.794062 0.411352 0.442715
200 2 0.992325 0.148746 0.543819
297 1 0.808274 0.288193 0.400043
604 5 0.985891 0.295816 0.432964
1121 2 0.564493 0.138993 0.530123
801 1 0.565524 0.485403 0.546889
164 1 0.59307 0.0895918 0.52004
58 1 0.694284 0.115624 0.515753
901 2 0.64298 0.0871233 0.506624
304 1 0.592347 0.193805 0.523747
1041 1 0.562041 0.130357 0.552018
936 1 0.724163 0.0298665 0.589127
1139 1 0.648065 0.0911048 0.570241
53 1 0.697401 0.133447 0.595881
626 2 0.606858 0.143633 0.566999
210 5 0.727393 0.0659376 0.54061
339 2 0.70525 0.0853191 0.580636
43 5 0.700882 0.208094 0.524084
369 1 0.637832 0.195112 0.559637
971 1 0.679523 0.238468 0.589929
830 1 0.584598 0.158184 0.58664
350 2 0.560542 0.0246995 0.587018
687 1 0.506592 0.0826378 0.493333
1195 1 0.512894 0.0669306 0.585819
394 1 0.977535 0.0310471 0.473885
1154 5 0.784202 0.137976 0.509503
515 5 0.873523 0.0944617 0.519857
408 1 0.965641 0.121914 0.526244
384 5 0.900301 0.213792 0.523002
224 1 0.800985 0.0390377 0.522527
1198 1 0.804454 0.177594 0.549214
157 1 0.90475 0.0409924 0.583663
1005 1 0.85491 0.0883378 0.557917
332 1 0.96896 0.125799 0.562333
1187 2 0.88712 0.0340289 0.562986
809 2 0.983047 0.134374 0.583149
118 2 0.811831 0.130926 0.563737
147 1 0.923709 0.0198361 0.545661
570 1 0.934495 0.15954 0.594416
466 1 0.515005 0.290808 0.472927
273 1 0.827382 0.160271 0.583226
228 1 0.752995 0.107084 0.568256
336 1 0.862171 0.497163 0.518076
430 5 0.79982 0.278709 0.596949
677 1 0.980019 0.21124 0.542256
1109 1 0.50198 0.149419 0.52555
73 2 0.58899 0.259355 0.524919
152 1 0.618394 0.369702 0.595967
895 1 0.535643 0.404271 0.501508
427 2 0.595189 0.41007 0.510249
509 1 0.581242 0.388329 0.530098
878 1 0.566387 0.278025 0.505474
924 1 0.604881 0.474002 0.509673
235 1 0.647407 0.288747 0.526777
279 1 0.639603 0.371903 0.501557
1059 1 0.992649 0.477074 0.402931
948 3 0.683764 0.346026 0.51786
431 2 0.687619 0.466115 0.58147
379 2 0.722038 0.465863 0.532106
720 1 0.738372 0.260555 0.558544
890 1 0.728389 0.427145 0.591349
831 2 0.616423 0.372947 0.573835
98 1 0.729248 0.32467 0.583462
203 2 0.69497 0.278906 0.573106
716 1 0.700809 0.406606 0.52817
391 1 0.656131 0.422601 0.568413
351 1 0.644541 0.317517 0.568364
189 1 0.775324 0.459192 0.545194
1119 3 0.543084 0.418045 0.546422
1056 1 0.548898 0.27046 0.541251
850 1 0.557135 0.383108 0.565979
1081 5 0.569198 0.255005 0.572295
746 1 0.996083 0.140901 0.422157
869 3 0.987132 0.280694 0.545291
612 1 0.747792 0.327982 0.511972
884 1 0.818993 0.268176 0.529214
843 5 0.915987 0.400475 0.520351
488 1 0.984584 0.307164 0.523759
825 2 0.811402 0.324992 0.51887
133 1 0.847844 0.324417 0.500854
18 1 0.798618 0.386686 0.56781
982 3 0.801977 0.24763 0.550343
1102 1 0.882857 0.436614 0.553351
769 1 0.843415 0.276844 0.568767
291 1 0.89673 0.360002 0.584244
1158 1 0.930546 0.262358 0.588623
623 1 0.986288 0.449984 0.572039
1100 2 0.823408 0.414467 0.550113
946 1 0.936045 0.307226 0.556243
742 2 0.900783 0.303619 0.573653
266 1 0.977879 0.463253 0.534293
529 1 0.822674 0.371611 0.533069
530 3 0.944192 0.471469 0.555861
1077 3 0.503539 0.495271 0.42224
300 2 0.589287 0.175294 0.648577
1043 1 0.646225 0.189661 0.656433
788 1 0.746469 0.173925 0.646764
354 2 0.695596 0.192698 0.604525
441 2 0.626864 0.0141307 0.619034
748 1 0.666743 0.204979 0.623768
875 1 0.607521 0.0376751 0.600953
1152 1 0.654653 0.0571942 0.632053
122 5 0.701358 0.0954777 0.660798
656 2 0.695956 0.210393 0.643488
539 1 0.549861 0.124839 0.648266
1025 1 0.530032 0.136147 0.61619
240 1 0.551515 0.237233 0.607764
601 1 0.563535 0.227269 0.640991
448 5 0.745821 0.0676536 0.625206
615 1 0.927688 0.00912717 0.641011
932 1 0.817024 0.0355192 0.66115
194 5 0.925703 0.0739672 0.664673
33 5 0.837673 0.131941 0.64743
383 1 0.949398 0.18281 0.652897
93 1 0.965999 0.218472 0.620077
666 1 0.863214 0.215443 0.609859
975 5 0.91136 0.0783914 0.615249
335 1 0.823458 0.116167 0.615916
292 2 0.819081 0.171105 0.604891
1151 1 0.760421 0.200181 0.607906
1140 2 0.987978 0.177376 0.635357
507 2 0.926389 0.215478 0.603554
355 1 0.725504 0.384322 0.647607
46 5 0.859656 0.00040221 0.691712
223 1 0.638363 0.41545 0.627859
933 2 0.643418 0.362069 0.616063
642 2 0.720219 0.443854 0.639115
527 1 0.704948 0.344477 0.618228
457 2 0.738511 0.326676 0.636749
771 1 0.71112 0.274505 0.644074
1130 2 0.581852 0.441551 0.634653
641 1 0.574257 0.453384 0.654795
463 2 0.554498 0.272923 0.625346
1009 1 0.603332 0.316257 0.625246
193 1 0.534377 0.399151 0.628254
56 1 0.809977 0.372168 0.601856
1108 5 0.99889 0.028256 0.620614
1182 5 0.915387 0.239043 0.677911
1080 2 0.877255 0.379609 0.603495
972 1 0.871773 0.439387 0.611318
1040 1 0.897954 0.307218 0.653657
963 1 0.858008 0.402013 0.641923
569 1 0.803671 0.320546 0.635704
65 1 0.893687 0.334791 0.618177
1132 2 0.839183 0.453829 0.630083
887 2 0.865844 0.337618 0.638666
675 1 0.775095 0.453741 0.628515