ITEM: TIMESTEP
2600
ITEM: NUMBER OF ATOMS
1200
ITEM: BOX BOUNDS pp pp pp
-7.6266250050336382e-02 2.5098596345622489e+01
-7.6266250050336382e-02 2.5098596345622489e+01
-2.5251128845723162e+01 5.0273458941295317e+01
ITEM: ATOMS id type xs ys zs
760 1 0.0751232 0.142757 0.390275
419 1 0.231109 0.134136 0.366957
108 1 0.230004 0.0347932 0.355796
96 1 0.0428435 0.0457705 0.387403
1076 1 0.184627 0.0945534 0.33408
1193 1 0.113617 0.0751417 0.363151
580 5 0.153628 0.168695 0.351877
269 2 0.0273486 0.213758 0.33909
638 5 0.157836 0.155623 0.310034
390 2 0.093802 0.0836219 0.383345
645 3 0.162318 0.0468315 0.349023
967 1 0.0815048 0.192141 0.33087
542 1 0.141761 0.0622186 0.395955
409 1 0.470696 0.390653 0.381814
1149 3 0.24486 0.0980739 0.348188
660 1 0.279724 0.258966 0.360213
412 2 0.358644 0.369605 0.346419
992 5 0.051894 0.0647188 0.33608
635 5 0.323529 0.21346 0.335518
787 1 0.407612 0.2526 0.350686
314 1 0.445592 0.183436 0.384706
590 2 0.485122 0.234658 0.382424
559 1 0.430646 0.0209162 0.356597
973 5 0.425313 0.103769 0.335648
468 2 0.40059 0.144054 0.391097
1174 1 0.298661 0.118929 0.33719
1037 1 0.38466 0.0979827 0.375399
432 5 0.314029 0.169331 0.365122
196 2 0.389314 0.0341223 0.372308
465 1 0.330821 0.00654074 0.367847
907 1 0.412061 0.00844837 0.390951
1159 2 0.423324 0.346462 0.382957
929 1 0.490661 0.26222 0.330981
628 1 0.400574 0.338732 0.333338
151 1 0.379714 0.353029 0.366152
804 1 0.232939 0.00273765 0.388902
26 5 0.196989 0.393019 0.332954
577 2 0.0994623 0.486195 0.363645
82 1 0.194778 0.320512 0.354263
382 5 0.218222 0.218249 0.383727
40 5 0.101116 0.3295 0.348239
813 1 0.0382113 0.477581 0.368638
403 5 0.161509 0.352723 0.381899
834 1 0.134395 0.486296 0.38178
418 1 0.0350469 0.266332 0.351074
915 1 0.121898 0.43855 0.350008
904 5 0.0106713 0.342897 0.374827
290 1 0.349835 0.179855 0.397331
1071 1 0.264653 0.348248 0.377904
456 1 0.4841 0.334428 0.353367
917 2 0.443282 0.481703 0.392692
935 2 0.444285 0.296821 0.341574
893 5 0.35318 0.266177 0.381701
460 1 0.36268 0.433279 0.345347
1053 1 0.296443 0.352892 0.343814
565 5 0.299843 0.438952 0.378715
346 2 0.258324 0.319794 0.358697
703 2 0.404269 0.471926 0.355095
241 1 0.445982 0.286623 0.383073
373 1 0.397605 0.469146 0.377198
1171 1 0.462662 0.447373 0.350016
1173 1 0.0717539 0.331165 0.398205
624 3 0.497076 0.00397557 0.356293
397 2 0.0398452 0.224703 0.473733
885 5 0.20526 0.205854 0.46971
1185 5 0.124717 0.153244 0.489002
88 1 0.0378925 0.167171 0.482015
28 1 0.217572 0.107542 0.494263
62 5 0.256569 0.0361888 0.445963
953 5 0.0787705 0.0244916 0.428119
1060 5 0.182347 0.206282 0.430831
137 5 0.17529 0.108165 0.440758
377 2 0.0593289 0.16518 0.410045
537 1 0.22428 0.0548649 0.417601
15 5 0.0800034 0.0774741 0.465269
353 1 0.0693237 0.230845 0.409032
1024 1 0.0960416 0.134354 0.424412
1070 2 0.189226 0.0224827 0.402679
20 1 0.153626 0.0253062 0.453927
1017 1 0.0981323 0.235686 0.465396
208 1 0.211323 0.487331 0.443084
472 1 0.259586 0.0217272 0.481321
75 1 0.319619 0.0945518 0.496797
375 2 0.268871 0.0835312 0.483832
206 1 0.261494 0.230311 0.494155
407 1 0.488096 0.222363 0.497815
247 5 0.421546 0.118439 0.472869
378 2 0.456213 0.0190119 0.446088
516 1 0.447343 0.0851631 0.443732
406 1 0.475938 0.17451 0.428907
91 1 0.421653 0.114837 0.408739
920 2 0.462297 0.111841 0.424664
851 1 0.420757 0.49119 0.451812
858 1 0.264929 0.174074 0.43665
443 2 0.309923 0.139207 0.446524
14 1 0.329167 0.0885384 0.43472
968 1 0.280065 0.115459 0.464845
72 1 0.357967 0.176638 0.454035
922 5 0.35393 0.228611 0.484676
1194 5 0.306507 0.435783 0.557671
518 1 0.0632372 0.294752 0.596617
533 1 0.161475 0.26734 0.404274
779 5 0.155732 0.446726 0.469719
242 1 0.0196034 0.269715 0.487841
754 1 0.0533723 0.469109 0.472959
78 5 0.166296 0.295054 0.478906
663 1 0.126832 0.362255 0.459972
1079 5 0.225269 0.446889 0.414991
435 1 0.202193 0.294876 0.449651
871 3 0.0239984 0.444332 0.492438
130 5 0.0156262 0.352941 0.578908
827 1 0.107899 0.303081 0.431733
689 2 0.155915 0.33335 0.443165
722 1 0.101193 0.478064 0.441753
1128 2 0.0438481 0.47299 0.451594
249 2 0.103287 0.28725 0.409999
265 1 0.176157 0.372444 0.427075
741 5 0.0913004 0.414182 0.41348
188 5 0.241626 0.315267 0.406314
364 1 0.0217575 0.376275 0.494677
1039 5 0.261493 0.379394 0.44801
322 5 0.364794 0.227936 0.425075
32 5 0.29401 0.265164 0.446816
557 2 0.498014 0.23317 0.422985
1105 1 0.326224 0.347935 0.536406
34 1 0.261249 0.418059 0.483191
998 1 0.39189 0.360649 0.401198
102 5 0.487504 0.361404 0.447167
1078 1 0.379569 0.416084 0.470902
564 2 0.378655 0.369141 0.486422
139 5 0.260351 0.324581 0.492515
547 1 0.321132 0.488987 0.500037
561 1 0.357689 0.315261 0.477002
256 2 0.266089 0.479896 0.489232
447 2 0.487939 0.407128 0.491291
4 1 0.442917 0.362022 0.490146
204 1 0.459136 0.454122 0.503692
608 1 0.466556 0.450544 0.40953
696 5 0.418472 0.258732 0.459523
996 1 0.452075 0.275173 0.428548
109 1 0.323916 0.324878 0.42394
694 1 0.320656 0.464007 0.44706
494 2 0.359011 0.375533 0.419092
308 1 0.393183 0.398387 0.435688
633 1 0.318467 0.425168 0.412721
410 2 0.380584 0.442456 0.45125
69 2 0.219908 0.212601 0.598823
640 1 0.0444626 0.0138998 0.569894
550 1 0.135877 0.110363 0.519125
574 5 0.0409391 0.112578 0.510539
1155 1 0.135849 0.22637 0.507086
520 2 0.198701 0.112055 0.514767
811 1 0.225757 0.0620837 0.525866
643 1 0.226615 0.168132 0.521423
785 1 0.104337 0.0934514 0.582507
857 1 0.204203 0.0640581 0.580856
114 2 0.241082 0.0217422 0.592262
1089 1 0.0102183 0.0897772 0.594559
1006 1 0.0578614 0.142187 0.542241
738 3 0.0760781 0.228054 0.592072
647 2 0.163581 0.115965 0.577064
192 1 0.159902 0.120457 0.555834
632 1 0.0241875 0.187274 0.584489
897 2 0.0557966 0.0514748 0.586955
826 3 0.113523 0.102853 0.540775
680 1 0.0979314 0.0338868 0.543811
548 1 0.188015 0.165915 0.587916
803 5 0.205954 0.20924 0.550673
219 1 0.115067 0.237533 0.57317
296 1 0.0708741 0.0150621 0.498673
211 5 0.314927 0.0273343 0.403824
991 5 0.332348 0.116892 0.595998
10 1 0.263643 0.242616 0.586407
23 1 0.362706 0.0933132 0.529486
298 2 0.26946 0.214821 0.514492
101 1 0.326495 0.184355 0.515774
854 2 0.355831 0.126848 0.51133
470 2 0.460855 0.185156 0.512714
413 1 0.434487 0.219804 0.528235
684 1 0.483694 0.0150854 0.521411
833 1 0.415054 0.146436 0.503493
81 1 0.416185 0.0333526 0.589803
961 2 0.453459 0.0866894 0.589365
900 3 0.420422 0.233021 0.589905
945 5 0.490207 0.19799 0.555551
42 1 0.487828 0.204188 0.589016
1161 1 0.439532 0.113413 0.570493
1066 5 0.378431 0.162099 0.550911
596 1 0.285378 0.164499 0.565063
1199 2 0.309574 0.218783 0.573501
220 1 0.302721 0.0261342 0.585909
646 5 0.269002 0.0704074 0.555054
837 5 0.378465 0.0251484 0.551531
438 1 0.367069 0.203377 0.581248
392 1 0.0112251 0.420591 0.446738
930 2 0.493836 0.01901 0.499613
1059 1 0.00955769 0.472312 0.402239
1117 5 0.110083 0.374656 0.597916
604 5 0.00605465 0.289951 0.430343
1001 2 0.138245 0.281086 0.517812
92 1 0.0821841 0.311723 0.513246
916 1 0.0508374 0.474715 0.511484
605 1 0.182293 0.318611 0.50932
424 2 0.0239131 0.316212 0.503031
798 5 0.175507 0.413977 0.509147
317 3 0.220645 0.464849 0.586406
611 1 0.234605 0.333993 0.553583
215 1 0.200402 0.418836 0.570536
367 5 0.0551568 0.397798 0.536164
366 1 0.0483848 0.304601 0.551506
759 1 0.140179 0.332522 0.56676
231 2 0.107079 0.283338 0.55844
153 1 0.139089 0.271763 0.539538
127 1 0.151789 0.396111 0.540445
352 1 0.0614033 0.474793 0.597199
174 2 0.184118 0.371856 0.556963
439 5 0.111536 0.468776 0.559383
105 2 0.284613 0.304808 0.544153
1054 5 0.0339784 0.335653 0.46319
372 1 0.350661 0.329771 0.593935
706 1 0.431765 0.485663 0.563799
977 1 0.265895 0.263302 0.529152
535 1 0.270761 0.429003 0.525424
227 1 0.438287 0.291847 0.578539
340 1 0.368133 0.489855 0.591032
966 1 0.378154 0.440613 0.533565
784 2 0.434642 0.458122 0.544099
348 5 0.491699 0.330153 0.553651
303 1 0.482361 0.413573 0.542096
558 5 0.253251 0.33179 0.592458
100 2 0.329951 0.402543 0.524487
1013 1 0.35144 0.375512 0.505979
652 5 0.404118 0.295561 0.544035
1099 1 0.393998 0.378463 0.565073
344 1 0.442742 0.381045 0.596332
812 2 0.40416 0.345752 0.583003
1118 1 0.275542 0.436191 0.597519
943 5 0.472066 0.303208 0.517605
1057 1 0.317939 0.265022 0.557694
257 3 0.00627038 0.00384729 0.492363
395 5 0.341901 0.00796749 0.511425
309 5 0.250438 0.138058 0.4055
687 1 0.497436 0.0779761 0.490017
861 1 0.474353 0.495483 0.599258
1131 5 0.194981 0.0149733 0.676668
142 1 0.17576 0.119196 0.673705
711 5 0.153741 0.0112847 0.625341
700 1 0.140865 0.145005 0.641388
359 1 0.212983 0.0672522 0.645237
1126 1 0.100975 0.196366 0.612357
47 2 0.109173 0.198438 0.633417
94 1 0.0484004 0.209162 0.642089
230 2 0.19145 0.124904 0.653393
986 1 0.238951 0.0381737 0.612865
1108 5 0.024276 0.0503054 0.625624
956 1 0.35182 0.450857 0.622244
123 1 0.238967 0.166132 0.647728
610 1 0.252806 0.179317 0.613433
1094 2 0.262464 0.0515906 0.632654
1072 1 0.4358 0.166243 0.63459
753 1 0.477065 0.060137 0.63117
209 1 0.408725 0.240693 0.611967
255 1 0.334751 0.204474 0.634279
365 1 0.301366 0.105385 0.63044
111 2 0.400022 0.220314 0.632265
651 2 0.283512 0.167269 0.63256
415 1 0.438844 0.12239 0.605943
1042 2 0.480605 0.123451 0.627957
1103 2 0.467979 0.000458925 0.639426
909 5 0.0746368 0.294608 0.66167
50 5 0.0641309 0.470654 0.660827
1085 2 0.110372 0.494917 0.610021
458 1 0.145706 0.24974 0.639054
51 1 0.140631 0.415084 0.65667
343 1 0.245042 0.295036 0.633235
1114 2 0.183323 0.292606 0.6282
1145 1 0.0558976 0.375172 0.642479
870 1 0.152168 0.348419 0.629118
631 1 0.113419 0.44758 0.625149
1069 2 0.115619 0.394942 0.638251
54 1 0.405942 0.498398 0.647112
551 1 0.187677 0.261042 0.60897
931 1 0.301371 0.00571896 0.640495
202 5 0.48581 0.332007 0.65941
1150 1 0.448392 0.415934 0.62885
525 2 0.479974 0.381144 0.614172
607 2 0.322402 0.476138 0.604902
1183 5 0.324644 0.312144 0.658395
1000 1 0.370392 0.39484 0.652372
71 2 0.395241 0.438517 0.638707
999 1 0.417072 0.26384 0.647381
31 5 0.320895 0.348677 0.626528
639 5 0.207317 0.477894 0.648219
556 1 0.171316 0.484931 0.601263
1111 1 0.0792034 0.0048607 0.601314
524 1 0.498914 0.323918 0.621218
370 1 0.108473 0.544536 0.354864
388 1 0.24825 0.722334 0.384934
1136 1 0.16275 0.75563 0.360257
1101 1 0.15664 0.592376 0.383103
763 1 0.0579258 0.772166 0.367836
708 1 0.100883 0.675359 0.364592
85 1 0.0480577 0.587423 0.381782
839 2 0.110536 0.737491 0.37085
572 2 0.169555 0.531838 0.392381
1144 3 0.101593 0.60554 0.368936
1135 1 0.122304 0.735831 0.393062
429 5 0.244301 0.628543 0.370034
500 5 0.464937 0.990897 0.306841
793 3 0.264356 0.988389 0.366829
734 5 0.338028 0.695887 0.361857
1033 1 0.388123 0.635636 0.343415
1064 1 0.470982 0.588772 0.362652
918 1 0.394321 0.53301 0.349694
715 2 0.405479 0.592515 0.357554
579 1 0.379385 0.594837 0.377174
124 2 0.399489 0.599567 0.397545
9 1 0.494383 0.50728 0.382077
176 5 0.325767 0.676509 0.324342
697 5 0.369183 0.917627 0.366706
84 3 0.231276 0.752784 0.364769
1122 1 0.245052 0.927923 0.35874
1088 2 0.216474 0.878573 0.367175
286 1 0.244964 0.820872 0.365617
797 1 0.194702 0.890947 0.389473
89 1 0.154623 0.878743 0.358384
416 1 0.0523277 0.909932 0.350604
6 5 0.0369181 0.857797 0.378631
519 2 0.111973 0.930282 0.356279
747 1 0.115988 0.950462 0.377402
52 5 0.355636 0.826111 0.385343
758 1 0.442269 0.868856 0.383272
750 5 0.165997 0.766874 0.327173
762 1 0.134881 0.980385 0.345532
679 1 0.296827 0.898058 0.387621
404 1 0.25738 0.71437 0.347819
1062 5 0.462559 0.781741 0.398017
422 5 0.00426446 0.704577 0.35064
598 1 0.450495 0.637104 0.398794
815 2 0.136656 0.924368 0.395914
1186 1 0.497113 0.940252 0.366181
634 2 0.498225 0.903626 0.383453
575 1 0.232635 0.520384 0.388769
1007 1 0.169406 0.603607 0.480445
12 5 0.0933304 0.750881 0.471697
1157 1 0.0860362 0.645399 0.464508
531 1 0.212654 0.734567 0.422049
620 2 0.196297 0.675658 0.429754
135 1 0.185941 0.670481 0.451408
1058 1 0.136705 0.672911 0.420679
670 1 0.145177 0.575766 0.447306
444 1 0.153462 0.526022 0.4124
994 5 0.0581475 0.608364 0.434546
446 1 0.0373222 0.698903 0.411444
1137 2 0.097238 0.722235 0.412392
1169 2 0.145482 0.625967 0.461135
1112 3 0.204489 0.575195 0.497517
739 5 0.0567884 0.542242 0.411774
545 2 0.214992 0.996545 0.525706
445 3 0.152827 0.516339 0.435141
718 1 0.249143 0.640898 0.424083
1083 1 0.339835 0.626714 0.476087
213 5 0.369703 0.541267 0.478173
1002 1 0.269254 0.513646 0.470101
1018 2 0.306946 0.644997 0.493307
349 1 0.272324 0.696795 0.489583
749 1 0.408355 0.697786 0.468275
554 5 0.444887 0.642169 0.495275
238 1 0.486632 0.546038 0.428202
501 5 0.48122 0.653522 0.434454
499 1 0.413979 0.715324 0.42835
528 1 0.422436 0.601369 0.454895
1049 3 0.460651 0.544624 0.449274
1031 1 0.335413 0.649178 0.443121
789 1 0.291084 0.557776 0.437673
562 1 0.326499 0.733169 0.406675
847 1 0.349898 0.606783 0.412019
911 2 0.30642 0.614645 0.428143
740 2 0.271309 0.506697 0.448801
1038 2 0.37744 0.649096 0.459647
86 1 0.409516 0.998192 0.459108
387 1 0.424576 0.555983 0.50215
1046 1 0.00182606 0.932978 0.599226
844 2 0.232293 0.7461 0.485472
11 1 0.170619 0.732884 0.488356
637 1 0.156627 0.96893 0.408898
426 1 0.0692962 0.855442 0.471819
1087 1 0.135692 0.955544 0.478999
167 5 0.147933 0.863022 0.490276
374 1 0.247757 0.901259 0.48687
705 2 0.240901 0.907153 0.442674
603 1 0.247757 0.91369 0.420883
475 5 0.0237099 0.911317 0.427482
823 5 0.176839 0.796166 0.443797
180 5 0.107079 0.865882 0.434902
35 1 0.104472 0.771719 0.426385
594 1 0.178144 0.921893 0.448325
988 2 0.13535 0.963448 0.457597
685 2 0.0211193 0.51232 0.525268
892 1 0.0756879 0.953736 0.449597
997 5 0.0295974 0.809761 0.446987
342 5 0.134673 0.503296 0.520487
70 2 0.013786 0.88016 0.478443
183 2 0.253845 0.881678 0.402079
386 1 0.253975 0.818004 0.405627
479 1 0.448562 0.995129 0.426922
985 5 0.316952 0.513014 0.403471
877 1 0.445927 0.986997 0.491586
1197 2 0.454722 0.742519 0.469588
1156 3 0.25515 0.748305 0.405074
941 1 0.346805 0.953998 0.482731
764 1 0.334313 0.818012 0.469412
881 1 0.246023 0.763516 0.465348
1015 3 0.278277 0.955993 0.47682
294 1 0.431799 0.902055 0.471332
293 1 0.462092 0.760803 0.489998
252 1 0.000848916 0.93837 0.486717
874 2 0.408045 0.959588 0.476816
140 1 0.388246 0.808655 0.416172
699 1 0.39074 0.915216 0.412474
958 3 0.393599 0.850281 0.462193
325 1 0.43404 0.795031 0.458294
277 1 0.469997 0.859406 0.427162
898 3 0.439488 0.966067 0.406785
356 2 0.407076 0.866423 0.424725
1034 1 0.376209 0.880899 0.44274
226 1 0.274425 0.949886 0.453977
138 1 0.325951 0.765914 0.439738
513 2 0.291271 0.796407 0.454658
980 5 0.3459 0.989121 0.433932
144 2 0.364845 0.752275 0.423601
942 1 0.257685 0.845549 0.446139
1189 5 0.15746 0.694178 0.518406
549 1 0.0665579 0.674811 0.527645
1147 5 0.0940617 0.617319 0.504279
665 2 0.0217001 0.722297 0.527474
657 1 0.175905 0.592051 0.517478
655 5 0.246743 0.645079 0.536343
120 1 0.230782 0.609214 0.565394
910 5 0.119802 0.610302 0.544014
182 1 0.149296 0.545494 0.570958
39 1 0.0650852 0.53095 0.539982
616 1 0.0372491 0.636217 0.576088
506 1 0.139631 0.646036 0.579089
1142 5 0.0523972 0.539744 0.571704
820 2 0.0816331 0.672502 0.584315
751 1 0.1611 0.727173 0.553047
145 1 0.0808928 0.733624 0.57737
1061 2 0.180426 0.596137 0.578296
544 1 0.210811 0.592755 0.598426
7 1 0.0194363 0.749158 0.508176
886 5 0.2565 0.726176 0.56671
853 5 0.0144142 0.797493 0.401858
334 1 0.0899807 0.887944 0.403167
805 5 0.491836 0.767097 0.433273
618 5 0.246876 0.524841 0.53021
307 2 0.366483 0.699332 0.525735
678 1 0.346112 0.658705 0.510118
568 5 0.340538 0.56106 0.519253
168 1 0.268827 0.59561 0.498544
978 2 0.46547 0.514301 0.510915
581 1 0.410469 0.670887 0.539296
902 1 0.407698 0.675857 0.574095
181 1 0.431933 0.571803 0.583459
1170 2 0.438172 0.70234 0.557392
541 5 0.407915 0.577242 0.550339
281 1 0.313301 0.564193 0.549911
79 1 0.314278 0.718099 0.536113
1 1 0.327405 0.602533 0.581999
143 1 0.259872 0.517792 0.575821
1028 3 0.391134 0.627115 0.588746
534 2 0.285031 0.573927 0.568761
268 1 0.457906 0.51115 0.532265
914 1 0.499055 0.941339 0.400958
474 1 0.163853 0.98918 0.512284
862 1 0.00583548 0.980115 0.539323
361 5 0.0168143 0.612425 0.544835
490 5 0.116394 0.851072 0.529168
1050 1 0.0907372 0.914577 0.507168
952 2 0.428568 0.50609 0.584426
576 2 0.116507 0.968935 0.499395
246 1 0.209989 0.862918 0.51869
702 1 0.0322476 0.764092 0.544078
1116 1 0.219841 0.959604 0.591978
1141 1 0.208691 0.978909 0.546106
262 1 0.168805 0.771194 0.586567
727 3 0.0802414 0.874507 0.567573
860 2 0.0596204 0.987909 0.551076
451 5 0.152631 0.979219 0.570271
405 1 0.0944161 0.908344 0.586947
765 1 0.121633 0.822606 0.56157
399 5 0.184782 0.888073 0.548331
376 1 0.0870144 0.929005 0.552911
482 1 0.0173983 0.848957 0.566067
567 2 0.134752 0.763307 0.568119
221 2 0.292399 0.829682 0.581746
310 5 0.285507 0.912306 0.545035
434 1 0.247663 0.798414 0.497373
234 3 0.360994 0.987224 0.591346
592 1 0.374111 0.839411 0.538104
283 1 0.401397 0.748581 0.516963
1023 1 0.286987 0.880371 0.59476
841 5 0.255328 0.79583 0.535733
816 1 0.251668 0.828871 0.564725
1115 1 0.289043 0.77739 0.593439
1113 1 0.494903 0.802219 0.522648
1011 2 0.257113 0.860292 0.504044
1184 1 0.313944 0.870978 0.512872
495 1 0.397288 0.934236 0.526837
1093 2 0.374548 0.876038 0.520268
41 1 0.265179 0.968413 0.517195
511 1 0.416111 0.844976 0.506999
83 2 0.447671 0.788594 0.508368
368 2 0.398088 0.823387 0.557429
414 1 0.459833 0.973015 0.556457
719 3 0.458969 0.95984 0.533769
1095 1 0.452209 0.785584 0.592556
315 1 0.426136 0.765395 0.555613
484 1 0.438585 0.871908 0.560703
450 2 0.437169 0.929839 0.570292
360 1 0.459092 0.922275 0.590617
731 1 0.352001 0.825255 0.572498
905 1 0.374945 0.944954 0.57294
949 5 0.0114436 0.890744 0.523075
173 1 0.0114831 0.528246 0.447834
919 1 0.413626 0.53725 0.400057
45 1 0.210834 0.503775 0.497061
913 5 0.0964249 0.64067 0.671063
68 1 0.215356 0.566843 0.632393
852 2 0.241564 0.70581 0.664798
329 1 0.22253 0.655871 0.651953
950 2 0.184621 0.605687 0.647083
1166 1 0.217459 0.700478 0.684728
627 1 0.0234995 0.575269 0.665168
819 1 0.0795119 0.661797 0.60521
609 2 0.0850896 0.617864 0.621275
704 1 0.163507 0.573997 0.663928
891 1 0.101646 0.557368 0.613813
455 1 0.132465 0.631852 0.636982
955 1 0.0302461 0.611575 0.632207
393 5 0.0996546 0.538318 0.686056
521 1 0.185874 0.86148 0.602574
1104 1 0.015695 0.51296 0.638107
459 1 0.0206186 0.702641 0.666713
440 5 0.238827 0.710354 0.606676
1180 5 0.372442 0.7532 0.606611
483 1 0.467973 0.563518 0.630516
1008 1 0.419135 0.734362 0.652962
1191 1 0.476616 0.748704 0.622691
1074 2 0.421408 0.562246 0.644778
106 1 0.445057 0.583202 0.663562
119 1 0.38567 0.654032 0.609508
125 1 0.307977 0.70356 0.667062
1125 2 0.249734 0.577784 0.61437
186 2 0.354445 0.733727 0.654886
923 1 0.287972 0.628612 0.618774
733 1 0.289381 0.527522 0.611783
927 1 0.339429 0.705268 0.636429
363 1 0.372888 0.601535 0.638066
129 2 0.345059 0.648164 0.626371
17 2 0.495457 0.74713 0.602124
710 1 0.221198 0.757376 0.654089
1020 1 0.0354681 0.74304 0.633486
937 3 0.213884 0.918859 0.646846
442 2 0.232435 0.906932 0.603386
1167 2 0.214644 0.803265 0.639299
588 1 0.188354 0.776645 0.621271
653 1 0.232202 0.927586 0.623646
80 1 0.174611 0.857205 0.64294
712 1 0.0933011 0.800107 0.609968
1067 2 0.156307 0.803907 0.604909
502 2 0.00278334 0.857345 0.647471
802 2 0.0356609 0.78513 0.617314
244 3 0.115459 0.904597 0.642252
324 1 0.15492 0.954352 0.650564
1124 2 0.065894 0.940374 0.602818
1003 1 0.0591251 0.88496 0.652215
60 1 0.0925406 0.922652 0.620751
345 1 0.00992272 0.837797 0.626617
104 5 0.142992 0.758011 0.699712
1014 1 0.405971 0.99308 0.644983
838 1 0.474398 0.956842 0.624035
437 5 0.313056 0.675521 0.698652
908 1 0.346613 0.904769 0.638581
338 1 0.489132 0.816324 0.650306
132 1 0.342167 0.79588 0.658099
867 5 0.398945 0.858022 0.60243
491 2 0.44831 0.777944 0.639583
1123 1 0.359478 0.973033 0.613207
205 5 0.333651 0.879301 0.67655
177 3 0.338585 0.83622 0.63903
217 1 0.271862 0.824902 0.632895
960 1 0.252754 0.901222 0.664277
1110 2 0.351907 0.968158 0.634475
1106 1 0.399558 0.813442 0.631012
285 1 0.693975 0.149821 0.390205
725 1 0.632021 0.0704243 0.367336
464 1 0.686243 0.137871 0.347644
1178 2 0.708901 0.20378 0.380591
1092 2 0.68704 0.0763987 0.355704
810 1 0.738514 0.0671101 0.368308
1016 5 0.587331 0.160858 0.367133
321 1 0.535028 0.0368744 0.37213
934 1 0.516119 0.22947 0.3638
1148 2 0.59407 0.0302731 0.378732
947 2 0.88775 0.285398 0.362729
328 2 0.53215 0.223066 0.342642
688 1 0.700628 0.244301 0.338836
299 1 0.919377 0.336905 0.357123
984 1 0.660054 0.23308 0.369649
121 5 0.577309 0.0820525 0.329948
267 1 0.595606 0.239401 0.34182
903 1 0.692564 0.0360366 0.339269
1146 5 0.99815 0.212568 0.383855
757 1 0.524799 0.162431 0.337014
585 3 0.731754 0.185471 0.342642
16 2 0.650768 0.264359 0.350882
1200 1 0.835622 0.400082 0.370248
1096 1 0.729714 0.254826 0.393914
686 2 0.984768 0.479345 0.382439
1026 1 0.75601 0.196861 0.36616
1073 2 0.799441 0.0706936 0.376446
818 2 0.836488 0.111959 0.339757
330 1 0.894626 0.139641 0.33576
540 5 0.835116 0.182821 0.384368
436 1 0.896991 0.447136 0.343402
288 2 0.934455 0.18554 0.342118
1068 1 0.788425 0.155067 0.334023
990 1 0.831656 0.107041 0.361634
107 1 0.839671 0.0526049 0.331955
389 1 0.972365 0.212903 0.326454
1163 1 0.804623 0.0944112 0.396656
159 2 0.991625 0.00902319 0.391168
261 1 0.900243 0.231191 0.352726
835 1 0.988941 4.31407e-05 0.343125
216 1 0.654778 0.495712 0.366527
614 1 0.988848 0.173413 0.352384
1032 1 0.822817 0.0104567 0.375141
799 2 0.753682 0.31239 0.399138
807 5 0.513698 0.485102 0.327478
690 3 0.500064 0.400801 0.360518
555 1 0.764757 0.380824 0.346128
497 5 0.690349 0.40252 0.327876
822 5 0.609134 0.237627 0.39654
940 1 0.5814 0.328123 0.385835
729 1 0.64099 0.326111 0.356544
396 1 0.747754 0.45666 0.37642
254 2 0.685291 0.455814 0.380903
77 1 0.653207 0.399664 0.382556
774 1 0.568117 0.404442 0.360195
1192 2 0.610578 0.366533 0.370228
676 1 0.753879 0.348291 0.381148
341 1 0.943237 0.432756 0.376982
1045 1 0.825518 0.30127 0.361196
477 5 0.915367 0.386114 0.318573
732 2 0.809068 0.447036 0.382887
692 2 0.79015 0.357273 0.363213
745 3 0.90002 0.40663 0.361258
1010 1 0.898377 0.274213 0.384114
21 5 0.908353 0.0313879 0.358914
957 1 0.937743 0.0438613 0.388816
428 1 0.620884 0.488047 0.331773
840 1 0.6008 0.0460451 0.399919
1019 5 0.528912 0.123628 0.462934
1030 2 0.541285 0.248804 0.487207
146 1 0.576749 0.195053 0.481991
691 1 0.639719 0.116313 0.490659
613 2 0.638059 0.172892 0.47988
179 1 0.682963 0.207483 0.489808
469 5 0.751302 0.0350898 0.470177
783 1 0.663827 0.0511655 0.456499
2 1 0.617352 0.0991691 0.430505
454 1 0.653994 0.153282 0.459818
401 5 0.748527 0.198187 0.457821
128 5 0.585491 0.037373 0.473913
489 1 0.721806 0.111829 0.435913
864 2 0.664309 0.105399 0.446256
795 5 0.662193 0.179053 0.417606
3 2 0.577315 0.0920937 0.41322
30 1 0.51767 0.0821174 0.419631
115 1 0.513415 0.239824 0.402225
880 1 0.508091 0.432194 0.472989
1133 1 0.549943 0.243875 0.436567
770 1 0.513428 0.00450737 0.454113
1175 1 0.579798 0.146219 0.40156
478 1 0.797687 0.123436 0.472611
682 5 0.939233 0.101618 0.494919
253 5 0.888767 0.0432275 0.463061
622 2 0.849458 0.160663 0.475621
493 5 0.907095 0.119826 0.409286
116 1 0.860755 0.154934 0.49661
199 5 0.857939 0.0312648 0.41253
683 1 0.995134 0.228188 0.457706
782 1 0.835736 0.221444 0.470146
582 5 0.927257 0.197542 0.435376
1179 5 0.98937 0.134387 0.451982
522 5 0.77854 0.165977 0.419441
214 1 0.864077 0.218548 0.411165
829 1 0.895794 0.14194 0.462205
95 5 0.809292 0.100156 0.44334
394 1 0.986038 0.0419273 0.47455
746 1 0.997323 0.160173 0.413968
1077 3 0.51297 0.484222 0.421142
218 5 0.590198 0.361886 0.472112
1052 5 0.695093 0.30786 0.481311
1168 5 0.724675 0.436657 0.487498
546 2 0.595173 0.283322 0.444015
721 5 0.621767 0.394393 0.417731
593 3 0.666924 0.482086 0.455173
433 1 0.711976 0.334634 0.449947
312 1 0.646765 0.26839 0.430459
1004 2 0.751222 0.385009 0.454535
44 2 0.704778 0.29783 0.432527
57 1 0.624585 0.27054 0.462682
37 1 0.713809 0.332778 0.41459
669 1 0.713986 0.435915 0.458182
767 1 0.604146 0.462629 0.463291
586 1 0.579775 0.343554 0.440884
536 1 0.532538 0.453468 0.439902
863 2 0.540845 0.470584 0.459996
976 5 0.514842 0.358083 0.407486
466 1 0.521697 0.286877 0.471784
693 5 0.776419 0.242149 0.494091
672 1 0.750392 0.25492 0.432316
591 5 0.964153 0.396947 0.411476
1091 1 0.781862 0.371254 0.472771
761 3 0.844902 0.369651 0.48197
476 5 0.918544 0.264738 0.475223
357 2 0.898816 0.48829 0.489968
263 1 0.881855 0.340919 0.465879
1138 1 0.958991 0.466945 0.492341
735 1 0.86111 0.435107 0.486752
636 1 0.878088 0.44092 0.42536
674 1 0.801086 0.431764 0.403667
64 2 0.813885 0.442672 0.424489
131 1 0.914809 0.310261 0.417145
1021 5 0.837449 0.280457 0.443747
1190 5 0.933095 0.375351 0.439474
1035 5 0.924197 0.444773 0.455286
103 1 0.78817 0.395773 0.437506
517 5 0.700596 0.0469085 0.401491
1109 1 0.506014 0.149756 0.522707
190 1 0.785128 0.497799 0.429186
1084 1 0.576501 0.491669 0.410423
944 1 0.643501 0.49646 0.599679
297 1 0.815184 0.309139 0.405218
467 2 0.872891 0.279585 0.404144
713 1 0.651783 0.0177105 0.499525
487 5 0.502 0.0608508 0.551293
1044 1 0.581883 0.0150515 0.568221
250 2 0.542873 0.189089 0.599331
1121 2 0.566649 0.138806 0.528564
164 1 0.592923 0.0853476 0.519828
58 1 0.697432 0.0946585 0.519404
901 2 0.647515 0.0779031 0.507413
304 1 0.598911 0.19371 0.522927
1041 1 0.567975 0.141931 0.550801
936 1 0.713456 0.0382162 0.588008
1139 1 0.651653 0.104148 0.568661
53 1 0.701344 0.140665 0.594992
626 2 0.611838 0.153064 0.565718
210 5 0.733526 0.0419405 0.542018
339 2 0.706185 0.0958412 0.579872
43 5 0.707963 0.195647 0.521375
369 1 0.648731 0.203289 0.55809
971 1 0.684052 0.239844 0.58823
830 1 0.586378 0.167699 0.585243
350 2 0.565013 0.030727 0.58872
1195 1 0.514444 0.0705337 0.58972
649 1 0.67968 0.488855 0.400403
736 5 0.833618 0.0547425 0.595686
200 2 0.99496 0.155082 0.54359
1154 5 0.773491 0.0985927 0.503039
515 5 0.86774 0.0948343 0.526498
408 1 0.963094 0.129888 0.526934
384 5 0.883242 0.197291 0.523963
224 1 0.808846 0.0254599 0.521206
1198 1 0.821206 0.185312 0.549189
157 1 0.917873 0.0366922 0.580428
1005 1 0.850801 0.0930946 0.561019
332 1 0.973114 0.126113 0.562086
1187 2 0.883812 0.037297 0.562605
809 2 0.983529 0.138468 0.583239
118 2 0.809063 0.1397 0.564185
147 1 0.913611 0.0230815 0.544301
570 1 0.932639 0.164126 0.593405
273 1 0.814433 0.166101 0.583805
228 1 0.750594 0.109075 0.564612
794 1 0.958336 0.0162014 0.510008
677 1 0.979728 0.218151 0.544963
801 1 0.568931 0.483379 0.54764
73 2 0.595523 0.259234 0.523544
152 1 0.630489 0.363452 0.596222
895 1 0.541697 0.391909 0.50288
427 2 0.597341 0.407257 0.51205
509 1 0.590138 0.389094 0.532561
878 1 0.571974 0.276098 0.503937
924 1 0.601308 0.473036 0.511825
235 1 0.651482 0.289929 0.526067
279 1 0.651007 0.378722 0.504357
948 3 0.689992 0.351531 0.521938
431 2 0.681732 0.471375 0.583983
379 2 0.721084 0.465102 0.535353
720 1 0.743576 0.256552 0.559237
890 1 0.738928 0.446641 0.590789
831 2 0.625515 0.3674 0.574638
98 1 0.721189 0.350339 0.580544
203 2 0.680348 0.257379 0.566403
716 1 0.701697 0.403634 0.535222
391 1 0.652259 0.427189 0.571561
351 1 0.638231 0.307709 0.566401
1119 3 0.54981 0.41635 0.549798
1056 1 0.551992 0.271622 0.538714
850 1 0.563533 0.37929 0.568755
1081 5 0.552252 0.285264 0.578107
612 1 0.752434 0.331363 0.5141
786 2 0.995887 0.467647 0.594322
530 3 0.943912 0.481975 0.556083
737 2 0.765795 0.391917 0.584982
430 5 0.780173 0.281992 0.589282
266 1 0.97963 0.474232 0.536264
189 1 0.777234 0.472616 0.546806
529 1 0.823726 0.386585 0.532439
869 3 0.982704 0.290178 0.543249
884 1 0.826663 0.281275 0.53065
843 5 0.928247 0.403007 0.51899
488 1 0.983212 0.308301 0.520022
825 2 0.814137 0.335447 0.519812
133 1 0.850705 0.340809 0.502427
18 1 0.808133 0.398389 0.568614
982 3 0.811282 0.254993 0.551903
1102 1 0.880774 0.451978 0.551947
769 1 0.853306 0.279673 0.567621
291 1 0.895196 0.363243 0.587652
1158 1 0.941343 0.268638 0.587115
623 1 0.985783 0.452613 0.573648
1100 2 0.821133 0.424661 0.549851
946 1 0.942078 0.329759 0.557402
742 2 0.905783 0.311882 0.573961
899 1 0.738015 0.484264 0.515461
300 2 0.559902 0.189745 0.650684
1043 1 0.624064 0.194492 0.653328
788 1 0.72634 0.16368 0.649214
354 2 0.699215 0.197537 0.604231
441 2 0.633697 0.0164417 0.618562
748 1 0.665549 0.202529 0.622909
46 5 0.842888 0.0215415 0.683639
1152 1 0.66945 0.0543463 0.630621
122 5 0.700558 0.0744434 0.661921
656 2 0.682646 0.207186 0.644066
539 1 0.526636 0.137445 0.648591
1025 1 0.530949 0.153769 0.616545
240 1 0.560276 0.247213 0.607612
601 1 0.544088 0.243901 0.641869
448 5 0.761775 0.0884956 0.630285
875 1 0.615104 0.0472373 0.600639
932 1 0.824567 0.0515452 0.652006
194 5 0.959399 0.0644088 0.657792
33 5 0.845584 0.15915 0.650337
383 1 0.944367 0.205095 0.654598
93 1 0.965942 0.230499 0.620622
666 1 0.866797 0.228546 0.607283
975 5 0.919256 0.0657836 0.615665
335 1 0.831769 0.129667 0.616316
292 2 0.820093 0.183042 0.604868
1151 1 0.762032 0.210379 0.609688
1140 2 0.985763 0.19635 0.638286
136 5 0.98894 0.339756 0.621908
162 1 0.980239 0.134094 0.632526
498 1 0.967112 0.426309 0.607356
355 1 0.712213 0.385447 0.648747
223 1 0.641585 0.413998 0.627831
933 2 0.649103 0.35546 0.616827
642 2 0.69362 0.44236 0.64019
527 1 0.706096 0.332585 0.621348
457 2 0.730739 0.326468 0.641715
771 1 0.700358 0.271294 0.648074
1130 2 0.574478 0.432101 0.630279
641 1 0.556738 0.405782 0.648676
463 2 0.549434 0.28479 0.625118
1009 1 0.606077 0.316574 0.627202
193 1 0.540692 0.409003 0.613098
471 1 0.670776 0.496369 0.648105
675 1 0.746336 0.457481 0.628681
56 1 0.799083 0.373372 0.602453
337 5 0.956427 0.435063 0.639587
1182 5 0.922509 0.271203 0.676103
1080 2 0.865171 0.388152 0.604931
972 1 0.850789 0.452263 0.610405
1040 1 0.889679 0.345109 0.658122
963 1 0.83356 0.422612 0.641699
569 1 0.794428 0.323723 0.643225
65 1 0.882934 0.354912 0.622688
1132 2 0.810023 0.468263 0.627491
887 2 0.852358 0.357949 0.641803
507 2 0.931358 0.223113 0.602269
600 1 0.560183 0.496003 0.628557
239 1 0.649592 0.579627 0.347342
411 2 0.742138 0.639473 0.377459