ITEM: TIMESTEP
2500
ITEM: NUMBER OF ATOMS
1200
ITEM: BOX BOUNDS pp pp pp
-7.6266250050336382e-02 2.5098596345622489e+01
-7.6266250050336382e-02 2.5098596345622489e+01
-2.5251128845723162e+01 5.0273458941295317e+01
ITEM: ATOMS id type xs ys zs
760 1 0.0782996 0.138831 0.390229
419 1 0.213772 0.135963 0.365128
108 1 0.218243 0.0332698 0.354269
96 1 0.0499071 0.0388524 0.390194
1076 1 0.181527 0.0971864 0.33287
1193 1 0.110286 0.0751616 0.362149
580 5 0.154589 0.190327 0.350836
269 2 0.0269096 0.216537 0.341257
638 5 0.14654 0.174727 0.315219
390 2 0.0968275 0.0786313 0.383387
645 3 0.153165 0.0490776 0.345985
967 1 0.0720068 0.182429 0.332074
542 1 0.1493 0.0638343 0.394761
409 1 0.474626 0.390499 0.37996
1149 3 0.236456 0.0994656 0.347379
660 1 0.276512 0.244526 0.356097
412 2 0.362561 0.364466 0.34564
992 5 0.0362736 0.0771251 0.340314
635 5 0.331626 0.206369 0.334517
787 1 0.408169 0.252744 0.351321
314 1 0.443337 0.186688 0.389138
590 2 0.484952 0.234775 0.38582
559 1 0.424956 0.0273974 0.35641
973 5 0.412165 0.110142 0.335365
468 2 0.394875 0.144663 0.393997
1174 1 0.296735 0.116585 0.338411
1037 1 0.381917 0.101503 0.377281
432 5 0.315957 0.159806 0.366114
196 2 0.383431 0.0387393 0.372311
465 1 0.324428 0.0114006 0.366452
907 1 0.399125 0.00797533 0.391255
1159 2 0.426276 0.348633 0.382394
929 1 0.492444 0.250832 0.333731
628 1 0.402667 0.330903 0.331779
151 1 0.385985 0.354432 0.365488
1173 1 0.0659935 0.324655 0.397548
26 5 0.183 0.409659 0.331095
577 2 0.0987725 0.485438 0.365125
82 1 0.194851 0.314692 0.350554
382 5 0.212604 0.217339 0.383334
40 5 0.104293 0.340265 0.348133
813 1 0.0364367 0.471204 0.37144
403 5 0.156524 0.349109 0.380213
834 1 0.133589 0.486482 0.383406
418 1 0.0429481 0.267381 0.35255
915 1 0.125728 0.434889 0.35339
904 5 0.0212196 0.34385 0.370356
290 1 0.342392 0.178391 0.399644
1071 1 0.25628 0.321887 0.378657
456 1 0.485258 0.341538 0.348325
917 2 0.433279 0.488668 0.392482
935 2 0.448936 0.292663 0.341248
893 5 0.347755 0.262331 0.377271
460 1 0.365235 0.430251 0.343656
1053 1 0.301109 0.345155 0.347803
565 5 0.285427 0.432445 0.381303
346 2 0.255993 0.30515 0.357743
703 2 0.406783 0.469256 0.353466
241 1 0.451319 0.289169 0.382618
373 1 0.398237 0.466648 0.375632
1171 1 0.46992 0.45493 0.350273
397 2 0.0371637 0.224827 0.476306
885 5 0.198219 0.215503 0.467405
1185 5 0.119686 0.147192 0.486669
88 1 0.0223542 0.165268 0.480796
28 1 0.21174 0.102854 0.492487
62 5 0.25736 0.0328559 0.447992
953 5 0.0742974 0.034487 0.425103
1060 5 0.159694 0.210386 0.431228
137 5 0.178007 0.106782 0.434618
377 2 0.058451 0.157454 0.41038
537 1 0.225427 0.043365 0.418069
15 5 0.0731576 0.0660798 0.46778
353 1 0.0673564 0.223337 0.410641
1024 1 0.09308 0.130266 0.425772
1070 2 0.18879 0.0189094 0.402755
20 1 0.157714 0.0183453 0.456021
1017 1 0.0997587 0.224266 0.471833
208 1 0.217661 0.490475 0.443683
472 1 0.266001 0.0207953 0.480311
75 1 0.318147 0.103592 0.495557
375 2 0.268098 0.0858175 0.48299
206 1 0.25858 0.230513 0.495949
407 1 0.485163 0.224278 0.497394
247 5 0.401957 0.119005 0.471785
378 2 0.444551 0.022684 0.44843
516 1 0.449543 0.0870237 0.445206
406 1 0.472217 0.178298 0.429617
91 1 0.415407 0.111075 0.41065
920 2 0.458702 0.115269 0.426506
851 1 0.409447 0.496917 0.449584
858 1 0.2539 0.163735 0.435139
443 2 0.304521 0.140074 0.445655
14 1 0.327644 0.0873023 0.436013
968 1 0.278287 0.118811 0.464946
72 1 0.34609 0.187716 0.450798
922 5 0.342594 0.218616 0.481139
1194 5 0.30545 0.432442 0.56476
683 1 0.0033093 0.246443 0.45914
533 1 0.158625 0.27131 0.402633
779 5 0.161679 0.444631 0.467937
242 1 0.0198302 0.265376 0.492411
754 1 0.052191 0.468608 0.472603
78 5 0.15885 0.290041 0.483418
663 1 0.124743 0.359028 0.460634
1079 5 0.227283 0.435302 0.409648
435 1 0.196323 0.297972 0.450075
871 3 0.0219543 0.440085 0.492256
130 5 0.00684514 0.353801 0.58116
827 1 0.103902 0.299181 0.430738
689 2 0.148936 0.332731 0.442339
722 1 0.102689 0.47819 0.442621
1128 2 0.0438214 0.473164 0.451137
249 2 0.0989398 0.28016 0.408493
265 1 0.172385 0.37735 0.42896
741 5 0.0944343 0.42389 0.415589
188 5 0.237581 0.330818 0.410022
364 1 0.0213388 0.371766 0.495656
1039 5 0.25914 0.372154 0.448808
322 5 0.369089 0.243632 0.42475
32 5 0.284882 0.254732 0.446404
861 1 0.473399 0.487962 0.599396
1105 1 0.32732 0.342863 0.53492
34 1 0.2512 0.422666 0.479818
998 1 0.394679 0.356603 0.400704
102 5 0.487208 0.356052 0.448775
1078 1 0.383667 0.416021 0.470365
564 2 0.375941 0.370569 0.48549
139 5 0.263248 0.329289 0.492317
547 1 0.312524 0.482618 0.500172
561 1 0.347614 0.318943 0.476566
256 2 0.260171 0.482218 0.488466
447 2 0.483955 0.404632 0.491815
4 1 0.437617 0.358239 0.491483
204 1 0.455312 0.454397 0.50098
608 1 0.458646 0.461939 0.410049
696 5 0.425872 0.290468 0.461567
996 1 0.459795 0.284564 0.42999
109 1 0.328678 0.326917 0.426302
694 1 0.315349 0.453793 0.449463
494 2 0.363877 0.37346 0.418381
308 1 0.399767 0.396158 0.435198
633 1 0.320946 0.421665 0.41279
410 2 0.379018 0.439734 0.450152
69 2 0.212589 0.209 0.598012
640 1 0.0418596 0.00965547 0.568864
550 1 0.136687 0.109456 0.517579
574 5 0.0423589 0.125626 0.507057
1155 1 0.13542 0.218748 0.50796
520 2 0.198795 0.111452 0.513834
811 1 0.233757 0.0620864 0.521919
643 1 0.22875 0.162837 0.521653
785 1 0.110456 0.0814228 0.583608
857 1 0.208955 0.0567616 0.57956
114 2 0.246339 0.0202961 0.591688
1089 1 0.00750447 0.0835249 0.592233
1006 1 0.0546146 0.148706 0.540727
738 3 0.0754423 0.229874 0.594693
647 2 0.167665 0.107152 0.57667
192 1 0.155049 0.117186 0.555766
632 1 0.0223132 0.190552 0.588824
897 2 0.0560554 0.0463366 0.585606
826 3 0.10992 0.107895 0.538823
680 1 0.0859942 0.0408092 0.539967
548 1 0.187931 0.157829 0.587643
803 5 0.204741 0.201727 0.553102
219 1 0.109725 0.240858 0.575228
296 1 0.0727645 0.0167513 0.495906
211 5 0.317638 0.0185848 0.408927
991 5 0.351608 0.11624 0.599152
10 1 0.255919 0.230231 0.582974
23 1 0.363298 0.0870051 0.527545
298 2 0.26627 0.211894 0.515981
101 1 0.325436 0.183004 0.517069
854 2 0.354079 0.128119 0.511528
470 2 0.458266 0.184699 0.51163
413 1 0.434227 0.222141 0.526823
684 1 0.475928 0.019964 0.521659
833 1 0.409934 0.147369 0.50329
81 1 0.415202 0.0301181 0.58737
961 2 0.452807 0.0835887 0.586848
900 3 0.419765 0.230071 0.590434
945 5 0.475104 0.190657 0.55401
42 1 0.483456 0.202784 0.586864
1161 1 0.444219 0.111934 0.567767
1066 5 0.380259 0.155582 0.545808
596 1 0.295081 0.169136 0.558137
1199 2 0.308502 0.217824 0.571559
220 1 0.307713 0.0300386 0.585751
646 5 0.264259 0.0792471 0.550575
837 5 0.37199 0.0352941 0.553092
438 1 0.360687 0.205779 0.582759
392 1 0.0151172 0.421707 0.443167
930 2 0.490383 0.018728 0.500247
1059 1 0.0130771 0.47052 0.404945
1117 5 0.116947 0.372164 0.597451
604 5 0.00827254 0.28123 0.431423
1001 2 0.137284 0.274091 0.518697
92 1 0.0792979 0.305547 0.515718
916 1 0.0556942 0.466966 0.510882
605 1 0.179405 0.315637 0.511423
424 2 0.0231278 0.314314 0.506009
798 5 0.202973 0.407941 0.511175
317 3 0.216201 0.468928 0.586634
611 1 0.23697 0.339011 0.551835
215 1 0.202139 0.419615 0.571364
367 5 0.0703682 0.386648 0.529941
366 1 0.0431644 0.300129 0.553833
759 1 0.137943 0.338378 0.563816
231 2 0.1064 0.285502 0.559105
153 1 0.136814 0.266352 0.540776
127 1 0.153868 0.404443 0.540462
352 1 0.0579732 0.478642 0.596296
174 2 0.186326 0.377217 0.556138
439 5 0.116605 0.473919 0.561994
105 2 0.285255 0.304219 0.54447
1054 5 0.0372375 0.333134 0.462766
372 1 0.346197 0.345057 0.591829
706 1 0.435374 0.479728 0.563705
977 1 0.260905 0.258253 0.531083
535 1 0.273617 0.430208 0.529532
227 1 0.423224 0.2909 0.578327
340 1 0.370905 0.482979 0.591952
966 1 0.37771 0.435887 0.533699
784 2 0.432957 0.451901 0.543885
348 5 0.492693 0.320017 0.556643
303 1 0.481246 0.408661 0.541601
558 5 0.25281 0.348446 0.590262
100 2 0.329872 0.401239 0.524546
1013 1 0.348878 0.381882 0.504619
652 5 0.398357 0.295787 0.546564
1099 1 0.395076 0.382947 0.563573
344 1 0.447143 0.379469 0.595054
812 2 0.4022 0.35225 0.58235
1118 1 0.270374 0.436889 0.597956
943 5 0.478295 0.312294 0.516377
1057 1 0.316176 0.270326 0.559151
479 1 0.437158 0.00575295 0.427548
395 5 0.362135 0.0126373 0.509109
309 5 0.260438 0.131917 0.406027
257 3 0.00414965 0.00303024 0.488373
342 5 0.14933 0.486087 0.528775
1131 5 0.212256 0.00840135 0.674808
142 1 0.179776 0.113082 0.673284
711 5 0.139528 0.0196633 0.627801
700 1 0.147816 0.155003 0.642691
359 1 0.217124 0.0739381 0.643519
1126 1 0.117066 0.194062 0.610747
47 2 0.116003 0.201887 0.632056
94 1 0.0520324 0.204669 0.637364
230 2 0.195764 0.127838 0.653961
986 1 0.241674 0.0401911 0.612154
1108 5 0.0191086 0.056886 0.622353
956 1 0.345686 0.441058 0.623539
123 1 0.246128 0.171941 0.650211
610 1 0.243389 0.184966 0.615608
1094 2 0.267308 0.0592626 0.630868
1072 1 0.442748 0.171884 0.6347
753 1 0.476311 0.0640981 0.633341
209 1 0.413914 0.244433 0.61216
255 1 0.338961 0.208351 0.631523
365 1 0.30333 0.1129 0.629104
111 2 0.4028 0.22306 0.631808
651 2 0.282746 0.174632 0.632411
415 1 0.437485 0.114918 0.604723
1042 2 0.489345 0.128482 0.631402
1103 2 0.469465 0.00303115 0.639984
909 5 0.0722754 0.287222 0.658615
50 5 0.068006 0.464407 0.659134
1085 2 0.107859 0.496822 0.609902
458 1 0.145655 0.258401 0.636565
51 1 0.147036 0.411784 0.655134
343 1 0.249041 0.296605 0.633141
1114 2 0.188749 0.298754 0.625853
1145 1 0.0600401 0.368093 0.641604
870 1 0.157632 0.35477 0.626313
631 1 0.10761 0.451332 0.626179
1069 2 0.117048 0.394506 0.637278
556 1 0.165349 0.486945 0.600318
551 1 0.191544 0.267764 0.606404
931 1 0.301452 0.0102373 0.639011
202 5 0.462846 0.343971 0.655635
1150 1 0.447493 0.415933 0.627893
525 2 0.482087 0.385332 0.612886
607 2 0.320793 0.469605 0.60569
1183 5 0.325331 0.310895 0.654557
1000 1 0.3854 0.397196 0.654131
71 2 0.393909 0.438655 0.63803
999 1 0.410402 0.271285 0.646094
31 5 0.328096 0.334454 0.621862
639 5 0.217971 0.476534 0.651791
524 1 0.497695 0.32536 0.620555
518 1 0.0616099 0.295616 0.601296
1111 1 0.0741703 0.00393246 0.601983
370 1 0.106315 0.544567 0.357136
388 1 0.243756 0.726102 0.385179
1136 1 0.154075 0.746712 0.361137
1101 1 0.167636 0.58913 0.38421
763 1 0.0509434 0.765037 0.369757
708 1 0.0973161 0.665772 0.366821
85 1 0.0516901 0.585662 0.38516
839 2 0.102548 0.728186 0.372186
572 2 0.176028 0.527217 0.392922
1144 3 0.10533 0.598723 0.371498
1135 1 0.117772 0.732894 0.393408
429 5 0.231992 0.644279 0.36923
500 5 0.486279 0.969164 0.308963
793 3 0.259653 0.990822 0.366565
734 5 0.337419 0.704978 0.367257
1033 1 0.395761 0.641879 0.344324
1064 1 0.475023 0.598358 0.363203
918 1 0.397091 0.536872 0.351214
715 2 0.410044 0.597315 0.358525
579 1 0.377378 0.608202 0.376229
124 2 0.38676 0.600446 0.397678
9 1 0.483389 0.519848 0.38219
176 5 0.313364 0.650253 0.32676
697 5 0.375121 0.912256 0.372139
84 3 0.223968 0.753881 0.364884
1122 1 0.24552 0.930726 0.358181
1088 2 0.207289 0.882643 0.36494
286 1 0.23365 0.823851 0.364294
797 1 0.193384 0.893463 0.387725
89 1 0.149996 0.887067 0.353948
416 1 0.044453 0.918702 0.352574
6 5 0.0327283 0.853288 0.378873
519 2 0.106484 0.936182 0.355624
747 1 0.108535 0.943681 0.376719
52 5 0.352611 0.824968 0.389411
758 1 0.441671 0.861048 0.385318
750 5 0.158692 0.764731 0.329541
762 1 0.125808 0.984989 0.343081
679 1 0.297634 0.902336 0.391418
404 1 0.260247 0.719731 0.349722
926 5 0.495338 0.688355 0.3708
624 3 0.487225 0.999347 0.355269
914 1 0.49041 0.946382 0.398922
815 2 0.134693 0.91915 0.395107
1186 1 0.482428 0.935014 0.363866
634 2 0.49095 0.904031 0.38244
575 1 0.236352 0.507141 0.388359
1062 5 0.466397 0.760598 0.39807
919 1 0.394586 0.536184 0.398841
804 1 0.227911 0.998564 0.38705
422 5 0.00945835 0.690165 0.356976
1007 1 0.183737 0.601107 0.480831
12 5 0.0904941 0.730563 0.476482
1157 1 0.0949367 0.639476 0.468344
531 1 0.218331 0.729088 0.425344
620 2 0.196213 0.671972 0.432151
135 1 0.188846 0.665618 0.453382
1058 1 0.138121 0.665435 0.422721
670 1 0.150141 0.573937 0.448266
444 1 0.166954 0.526626 0.41366
994 5 0.0573581 0.631302 0.435138
446 1 0.0382097 0.698243 0.411668
1137 2 0.102645 0.714604 0.413573
1169 2 0.153123 0.619758 0.462738
1112 3 0.205548 0.573928 0.500609
739 5 0.0581541 0.540364 0.417459
45 1 0.206169 0.5035 0.497868
445 3 0.156416 0.514566 0.43654
718 1 0.241686 0.631618 0.425001
1083 1 0.344824 0.62276 0.47875
213 5 0.37462 0.518311 0.477808
1002 1 0.273273 0.521734 0.471429
1018 2 0.308725 0.640337 0.496076
349 1 0.270366 0.691633 0.491917
749 1 0.40374 0.701905 0.467179
554 5 0.447178 0.658479 0.494344
238 1 0.48894 0.550405 0.430534
501 5 0.476723 0.651535 0.432633
499 1 0.413267 0.711866 0.428151
528 1 0.420071 0.606131 0.455219
1049 3 0.455133 0.549321 0.451441
1031 1 0.334209 0.649744 0.444903
789 1 0.300251 0.556316 0.438548
562 1 0.322049 0.733435 0.409816
847 1 0.337688 0.615111 0.410867
911 2 0.304171 0.616116 0.429293
740 2 0.278272 0.506701 0.450047
1038 2 0.374201 0.648002 0.461156
289 1 0.495345 0.90994 0.529058
387 1 0.419795 0.556205 0.501884
1046 1 0.00746178 0.926385 0.599157
844 2 0.235581 0.747028 0.486761
11 1 0.173572 0.733788 0.490482
637 1 0.148894 0.968224 0.407521
426 1 0.0719243 0.849276 0.469084
1087 1 0.133676 0.949365 0.479452
167 5 0.145479 0.843985 0.490684
374 1 0.24305 0.89944 0.485829
705 2 0.240709 0.906479 0.443795
603 1 0.237009 0.91259 0.421555
475 5 0.0331791 0.893762 0.428628
823 5 0.174802 0.787072 0.45018
180 5 0.113906 0.857858 0.43698
35 1 0.104537 0.763827 0.42757
594 1 0.179507 0.913441 0.451144
988 2 0.135348 0.957734 0.458339
685 2 0.0321755 0.51195 0.524208
892 1 0.0815682 0.948401 0.446529
997 5 0.0337833 0.787227 0.447014
5 1 0.0137132 0.562943 0.511899
70 2 0.0179563 0.878311 0.475452
183 2 0.246362 0.884707 0.402198
386 1 0.250178 0.82206 0.405956
170 1 0.00550399 0.97433 0.413188
985 5 0.311346 0.514704 0.410032
877 1 0.439475 0.991273 0.490959
1197 2 0.454491 0.744047 0.46767
1156 3 0.255957 0.752283 0.407154
941 1 0.348001 0.942571 0.484399
764 1 0.339427 0.823737 0.471649
881 1 0.252677 0.767679 0.466992
1015 3 0.281021 0.954424 0.478863
294 1 0.436088 0.903168 0.472246
293 1 0.454508 0.764012 0.488472
252 1 0.00844255 0.940851 0.479511
874 2 0.405606 0.958953 0.477145
140 1 0.388873 0.80891 0.417944
699 1 0.393853 0.919926 0.4128
958 3 0.395868 0.853201 0.462744
325 1 0.436226 0.798962 0.457348
277 1 0.470672 0.865729 0.428679
898 3 0.434703 0.974776 0.40693
356 2 0.408588 0.868816 0.424334
1034 1 0.375981 0.879701 0.442802
226 1 0.279054 0.945282 0.454674
138 1 0.330505 0.765448 0.443402
513 2 0.299098 0.801979 0.457058
980 5 0.345059 0.970689 0.433712
144 2 0.364375 0.750803 0.42584
942 1 0.263327 0.847395 0.446851
1189 5 0.167836 0.704658 0.522064
549 1 0.0780595 0.681235 0.530483
1147 5 0.0921116 0.625321 0.501832
665 2 0.0299685 0.723351 0.528158
657 1 0.173002 0.587062 0.519672
655 5 0.244765 0.653197 0.533449
120 1 0.234556 0.612708 0.564967
910 5 0.129617 0.615761 0.544949
182 1 0.154692 0.549472 0.570636
39 1 0.0705394 0.528018 0.541074
616 1 0.0358892 0.637832 0.575403
506 1 0.140353 0.646143 0.579276
1142 5 0.0446653 0.548846 0.571779
820 2 0.0809759 0.673431 0.583692
751 1 0.175764 0.744509 0.550537
145 1 0.0861183 0.729298 0.572734
1061 2 0.184938 0.600819 0.578811
544 1 0.212244 0.590514 0.598221
7 1 0.0228251 0.743802 0.507338
886 5 0.262172 0.712575 0.563891
853 5 0.0242075 0.795188 0.403471
462 5 0.499366 0.625933 0.5292
398 5 0.000155836 0.66419 0.458564
618 5 0.255224 0.51938 0.527923
307 2 0.369616 0.703607 0.526775
678 1 0.348031 0.661122 0.511748
568 5 0.343578 0.549422 0.518452
168 1 0.271173 0.595103 0.504474
978 2 0.459299 0.514206 0.509696
581 1 0.420795 0.676783 0.536665
902 1 0.399436 0.670786 0.570168
181 1 0.429088 0.566248 0.5819
1170 2 0.436227 0.702378 0.556704
541 5 0.413357 0.581086 0.549452
281 1 0.313952 0.563178 0.54846
79 1 0.323845 0.722282 0.540498
1 1 0.324333 0.594961 0.582349
143 1 0.259869 0.515619 0.575389
1028 3 0.387102 0.622648 0.586688
534 2 0.285392 0.568542 0.567375
268 1 0.451813 0.507223 0.531336
191 1 0.498704 0.689577 0.595034
474 1 0.172429 0.987201 0.509347
862 1 0.00623722 0.972408 0.535356
361 5 0.0200035 0.612577 0.543212
490 5 0.127309 0.853445 0.528808
1050 1 0.0893724 0.921377 0.50949
952 2 0.428628 0.500065 0.584365
576 2 0.117322 0.970282 0.499025
246 1 0.206134 0.874028 0.518193
702 1 0.030807 0.77742 0.540214
1116 1 0.229407 0.955856 0.590788
1141 1 0.218854 0.981629 0.541931
262 1 0.165836 0.764116 0.585875
727 3 0.08628 0.884935 0.566869
860 2 0.0561002 0.987154 0.548057
451 5 0.163674 0.98494 0.566446
405 1 0.0998901 0.914962 0.586338
765 1 0.127193 0.829439 0.563796
399 5 0.188543 0.89757 0.548682
376 1 0.0942539 0.935737 0.551873
482 1 0.0235181 0.854361 0.564818
567 2 0.139081 0.767225 0.56627
221 2 0.290262 0.826082 0.581725
310 5 0.288296 0.91667 0.541725
434 1 0.246954 0.799173 0.499012
234 3 0.361784 0.988528 0.590672
592 1 0.369648 0.843007 0.537406
283 1 0.394158 0.754577 0.515575
1023 1 0.291402 0.876229 0.595789
841 5 0.245548 0.800355 0.536708
816 1 0.252414 0.846933 0.565474
1115 1 0.277118 0.771835 0.592224
1113 1 0.48295 0.810491 0.521653
1011 2 0.250605 0.864413 0.503802
1184 1 0.308596 0.868366 0.511955
495 1 0.391302 0.935772 0.524764
1093 2 0.367066 0.877506 0.518658
41 1 0.277746 0.970803 0.513519
511 1 0.40814 0.851961 0.504688
83 2 0.438131 0.795088 0.506496
368 2 0.393104 0.822533 0.55665
414 1 0.448367 0.973752 0.555211
719 3 0.451404 0.963194 0.532223
1095 1 0.443734 0.78342 0.590905
315 1 0.424448 0.766243 0.554881
484 1 0.433688 0.870733 0.562521
450 2 0.428731 0.932323 0.569768
360 1 0.456308 0.932633 0.58969
731 1 0.349623 0.817601 0.57288
905 1 0.365705 0.944628 0.573781
598 1 0.442987 0.629654 0.401086
173 1 0.00868484 0.525887 0.446493
545 2 0.225972 0.998622 0.521488
949 5 0.00997118 0.878646 0.522238
770 1 0.497484 0.99682 0.457096
334 1 0.0965634 0.875133 0.402893
178 1 0.499768 0.691065 0.556454
86 1 0.395993 0.999993 0.460433
913 5 0.10264 0.663649 0.667971
68 1 0.209462 0.562637 0.631737
852 2 0.237204 0.701101 0.663036
329 1 0.214995 0.648709 0.653433
950 2 0.177556 0.59857 0.645564
1166 1 0.210071 0.702752 0.682721
627 1 0.0368591 0.562257 0.664368
819 1 0.077268 0.666302 0.605733
609 2 0.0760633 0.618764 0.621005
704 1 0.16025 0.56529 0.662286
891 1 0.0942984 0.560835 0.613424
455 1 0.127063 0.62883 0.635366
955 1 0.0206186 0.609285 0.631934
393 5 0.107826 0.537757 0.684274
521 1 0.192078 0.856904 0.602362
1104 1 0.0126978 0.507062 0.636738
459 1 0.0262708 0.710201 0.668477
440 5 0.219028 0.687108 0.604118
54 1 0.4025 0.502514 0.643412
483 1 0.467256 0.565532 0.626593
1008 1 0.411217 0.73775 0.654165
1191 1 0.470182 0.749297 0.622902
1074 2 0.424736 0.565247 0.642922
106 1 0.461971 0.572944 0.660305
119 1 0.385224 0.646338 0.608527
125 1 0.302497 0.696857 0.66446
1125 2 0.251375 0.574366 0.615201
186 2 0.34688 0.731192 0.653994
923 1 0.290201 0.626191 0.620538
733 1 0.288074 0.522407 0.612322
927 1 0.342226 0.708105 0.633643
363 1 0.375786 0.605865 0.640432
129 2 0.348587 0.647299 0.626348
17 2 0.488126 0.750194 0.601233
710 1 0.219762 0.75492 0.652095
1020 1 0.0406864 0.745496 0.635797
937 3 0.218868 0.912086 0.64528
442 2 0.236242 0.904727 0.602871
1167 2 0.215017 0.800608 0.637007
588 1 0.19092 0.768983 0.619649
653 1 0.233891 0.927941 0.623213
80 1 0.171959 0.849174 0.64101
712 1 0.097893 0.798318 0.610249
1067 2 0.162148 0.79886 0.603584
502 2 0.00658891 0.860889 0.646925
802 2 0.038637 0.786482 0.618658
244 3 0.120429 0.897437 0.642671
324 1 0.161177 0.947805 0.649938
1124 2 0.0703462 0.939119 0.603438
1003 1 0.0665339 0.87404 0.652521
60 1 0.0973002 0.9208 0.621577
345 1 0.0079918 0.838825 0.626247
104 5 0.14083 0.750983 0.693968
1014 1 0.40626 0.990739 0.645787
838 1 0.4777 0.963919 0.622871
437 5 0.287781 0.675315 0.698679
908 1 0.34443 0.909982 0.639011
338 1 0.485951 0.816102 0.648842
132 1 0.331526 0.794228 0.657573
867 5 0.385868 0.862829 0.602007
491 2 0.442293 0.779658 0.638861
1123 1 0.358458 0.978528 0.612697
205 5 0.349072 0.903736 0.672992
177 3 0.332733 0.841425 0.640323
217 1 0.271167 0.827292 0.631711
960 1 0.258695 0.901145 0.662834
1110 2 0.353188 0.973986 0.633781
236 1 0.000955926 0.757034 0.603448
1106 1 0.394284 0.81574 0.630476
906 2 0.000720938 0.562699 0.646486
1180 5 0.360775 0.738966 0.600058
285 1 0.701014 0.149314 0.391747
725 1 0.636296 0.0618058 0.365913
464 1 0.690128 0.137095 0.34586
1178 2 0.714244 0.202751 0.381361
1092 2 0.689489 0.0759299 0.354132
810 1 0.741439 0.0731452 0.367392
1016 5 0.592193 0.144144 0.372999
321 1 0.535442 0.0277097 0.371257
934 1 0.521019 0.227989 0.367726
1148 2 0.596278 0.0249118 0.378178
947 2 0.888104 0.28638 0.366804
328 2 0.532392 0.21445 0.346306
688 1 0.701034 0.243793 0.340993
299 1 0.924619 0.337748 0.366766
984 1 0.660319 0.223691 0.370982
121 5 0.576214 0.0740167 0.329051
267 1 0.593495 0.238476 0.343796
903 1 0.687735 0.0357744 0.337058
649 1 0.666356 0.489642 0.399525
757 1 0.53788 0.15157 0.34565
585 3 0.738937 0.186093 0.343858
16 2 0.649274 0.257775 0.352867
1200 1 0.830645 0.4053 0.367016
1096 1 0.738281 0.247316 0.395007
686 2 0.987431 0.474157 0.385385
1026 1 0.75944 0.195386 0.366879
1073 2 0.800508 0.0695977 0.375828
818 2 0.8439 0.114044 0.339649
330 1 0.903375 0.142259 0.336818
540 5 0.85401 0.17378 0.383543
436 1 0.912386 0.431739 0.344101
288 2 0.936615 0.192571 0.342355
1068 1 0.795213 0.153744 0.335808
990 1 0.839728 0.0981534 0.361081
107 1 0.843704 0.0582808 0.328039
389 1 0.974996 0.224358 0.328983
1163 1 0.808998 0.0993038 0.395109
159 2 0.994986 0.00613024 0.394935
261 1 0.908803 0.236298 0.354371
835 1 0.979149 0.00968204 0.347576
1146 5 0.998223 0.213185 0.383977
614 1 0.988819 0.177357 0.354697
1032 1 0.815756 0.00760947 0.379208
799 2 0.761417 0.309107 0.398704
807 5 0.541649 0.488621 0.324289
690 3 0.505878 0.399028 0.358565
555 1 0.750746 0.377089 0.345921
497 5 0.671653 0.412862 0.330488
840 1 0.597223 0.0520048 0.398825
940 1 0.584014 0.338997 0.389418
729 1 0.64036 0.317502 0.360172
396 1 0.748165 0.461739 0.381097
254 2 0.68322 0.464838 0.380354
77 1 0.658422 0.40512 0.380368
774 1 0.573381 0.399895 0.359536
1192 2 0.614078 0.364741 0.371409
676 1 0.761299 0.339528 0.38003
341 1 0.937195 0.43439 0.381792
1045 1 0.832032 0.306458 0.357932
477 5 0.92553 0.371859 0.319228
732 2 0.812577 0.45013 0.382231
692 2 0.789129 0.353225 0.361151
745 3 0.89909 0.406183 0.364434
1010 1 0.896052 0.262418 0.388064
21 5 0.886031 0.0166768 0.356468
957 1 0.942985 0.0446499 0.395935
428 1 0.630123 0.498474 0.329839
216 1 0.659783 0.495922 0.363273
822 5 0.607368 0.248762 0.399788
1019 5 0.521617 0.131303 0.465318
1030 2 0.537301 0.250274 0.487495
146 1 0.575081 0.199485 0.481448
691 1 0.63354 0.117253 0.489614
613 2 0.63526 0.175234 0.478611
179 1 0.683691 0.204651 0.488768
469 5 0.746471 0.033545 0.470085
783 1 0.663023 0.0524685 0.455818
2 1 0.611713 0.0968799 0.431197
454 1 0.647252 0.158454 0.458418
401 5 0.734367 0.194143 0.460171
128 5 0.57661 0.0228632 0.469551
489 1 0.713993 0.117748 0.434985
864 2 0.658264 0.107421 0.446068
795 5 0.666036 0.18368 0.419782
3 2 0.578659 0.0992274 0.412412
30 1 0.513955 0.0941401 0.417315
115 1 0.514173 0.24153 0.40478
880 1 0.509717 0.420244 0.472835
1133 1 0.551426 0.233826 0.438466
687 1 0.502795 0.0764317 0.490736
1175 1 0.587014 0.159614 0.405697
478 1 0.791349 0.124826 0.469856
682 5 0.953283 0.10963 0.497135
253 5 0.890238 0.038121 0.468087
622 2 0.843333 0.162384 0.472949
493 5 0.908322 0.123906 0.411014
116 1 0.861326 0.15551 0.493686
199 5 0.858512 0.0306944 0.412209
56 1 0.80877 0.36105 0.598626
782 1 0.825587 0.22471 0.471089
582 5 0.933203 0.205715 0.439904
1179 5 0.977269 0.123452 0.456301
522 5 0.769878 0.171851 0.4129
214 1 0.860183 0.205304 0.413827
829 1 0.887585 0.145694 0.458529
95 5 0.807146 0.0952297 0.439575
394 1 0.984196 0.0470836 0.472969
746 1 0.9964 0.150692 0.412688
1077 3 0.509005 0.488134 0.421704
218 5 0.59759 0.361854 0.473657
1052 5 0.702765 0.302642 0.481263
1168 5 0.723217 0.426423 0.491243
546 2 0.596306 0.282206 0.443675
721 5 0.617067 0.394158 0.416248
593 3 0.664963 0.481002 0.456327
433 1 0.708579 0.3384 0.447109
312 1 0.644679 0.271093 0.429841
1004 2 0.751115 0.384516 0.452319
44 2 0.704846 0.29416 0.431246
57 1 0.624337 0.276973 0.463022
37 1 0.720494 0.330878 0.413914
669 1 0.717461 0.43475 0.45855
767 1 0.602144 0.470057 0.465944
586 1 0.572901 0.338373 0.43853
536 1 0.528505 0.457169 0.440897
863 2 0.538506 0.467859 0.461893
976 5 0.504172 0.358024 0.414766
466 1 0.519902 0.289944 0.472119
693 5 0.774989 0.246813 0.495656
672 1 0.748172 0.248328 0.433311
591 5 0.966534 0.388078 0.413666
1091 1 0.784177 0.36205 0.469678
761 3 0.846234 0.371267 0.480186
476 5 0.919655 0.261527 0.482615
357 2 0.895851 0.486623 0.488726
263 1 0.893727 0.342056 0.468437
1138 1 0.955944 0.461027 0.491135
735 1 0.854505 0.438491 0.482793
636 1 0.882764 0.453066 0.427473
674 1 0.822236 0.426442 0.401463
64 2 0.821132 0.441516 0.422323
131 1 0.919891 0.294366 0.420114
1021 5 0.843259 0.287314 0.448162
1190 5 0.934938 0.369533 0.439073
1035 5 0.930393 0.445102 0.457483
103 1 0.796086 0.395726 0.436559
726 1 0.836511 0.00270825 0.44448
1109 1 0.504934 0.148075 0.521946
190 1 0.781089 0.489187 0.427274
172 1 0.665632 0.493365 0.540469
944 1 0.652982 0.492419 0.599041
297 1 0.821878 0.304163 0.405841
467 2 0.874186 0.265896 0.408046
713 1 0.636349 0.0158578 0.497557
517 5 0.71521 0.0650336 0.401416
1044 1 0.585372 0.00643291 0.569467
250 2 0.538784 0.189655 0.597741
1121 2 0.566646 0.140584 0.527924
164 1 0.593846 0.0849094 0.520343
58 1 0.695258 0.0867263 0.517079
901 2 0.64183 0.0747028 0.505821
304 1 0.597906 0.190737 0.519519
1041 1 0.576797 0.140915 0.548944
936 1 0.728927 0.0450038 0.589184
1139 1 0.653186 0.106097 0.569034
53 1 0.697496 0.140263 0.598572
626 2 0.614585 0.15656 0.565447
210 5 0.751918 0.045488 0.544645
339 2 0.703755 0.098057 0.581694
43 5 0.703043 0.197741 0.52246
369 1 0.650317 0.208434 0.559385
971 1 0.695997 0.239382 0.58712
830 1 0.581448 0.170987 0.583454
350 2 0.56652 0.028159 0.589029
1195 1 0.514641 0.0620457 0.587047
557 2 0.500448 0.236253 0.425405
736 5 0.823792 0.0556101 0.594068
200 2 0.990492 0.154921 0.54421
1154 5 0.777962 0.103966 0.502123
515 5 0.863044 0.111302 0.522811
408 1 0.96021 0.123765 0.528489
384 5 0.908404 0.218017 0.520412
224 1 0.808482 0.0278306 0.517816
1198 1 0.828212 0.183558 0.550561
157 1 0.909265 0.032458 0.579716
1005 1 0.844123 0.0845326 0.560027
332 1 0.977164 0.132498 0.563721
1187 2 0.882772 0.0317773 0.560739
809 2 0.982363 0.140011 0.584599
118 2 0.814373 0.139959 0.565992
147 1 0.9145 0.02349 0.542381
570 1 0.927904 0.166793 0.592878
273 1 0.822306 0.166695 0.58553
228 1 0.750633 0.126493 0.569181
794 1 0.958639 0.00906576 0.50691
677 1 0.971403 0.218032 0.543251
801 1 0.560333 0.481095 0.549012
73 2 0.593638 0.253982 0.522914
152 1 0.635532 0.367696 0.593686
895 1 0.535875 0.386722 0.502585
427 2 0.595431 0.405777 0.509923
509 1 0.593108 0.39412 0.531312
878 1 0.569169 0.278889 0.50425
924 1 0.595273 0.468758 0.505962
235 1 0.648315 0.285413 0.527615
279 1 0.648991 0.373544 0.504087
948 3 0.68478 0.342507 0.522412
431 2 0.690308 0.469419 0.582242
379 2 0.720387 0.466516 0.533162
720 1 0.742131 0.257754 0.554441
890 1 0.741219 0.437229 0.589532
831 2 0.627874 0.367964 0.5719
98 1 0.727214 0.337437 0.578183
203 2 0.686649 0.263139 0.56597
716 1 0.709147 0.402952 0.531618
391 1 0.657398 0.426887 0.569539
351 1 0.639475 0.30862 0.565152
1119 3 0.548981 0.415017 0.548083
1056 1 0.553866 0.261049 0.539451
850 1 0.565091 0.380397 0.566136
1081 5 0.547665 0.285477 0.575246
612 1 0.74963 0.322312 0.513664
786 2 0.993071 0.469051 0.594271
530 3 0.944115 0.488737 0.553893
737 2 0.770337 0.382537 0.583328
430 5 0.786689 0.273377 0.592297
266 1 0.97991 0.482347 0.533249
189 1 0.776358 0.475018 0.543709
529 1 0.827686 0.384316 0.532969
869 3 0.978228 0.289617 0.54467
884 1 0.829875 0.278319 0.529961
843 5 0.931688 0.397176 0.515598
488 1 0.979516 0.309487 0.521992
825 2 0.811309 0.332384 0.520176
133 1 0.845261 0.341544 0.501736
18 1 0.806617 0.397214 0.566548
982 3 0.811306 0.251252 0.550804
1102 1 0.877615 0.463429 0.552266
769 1 0.844888 0.287744 0.566459
291 1 0.896955 0.367775 0.586088
1158 1 0.933375 0.272839 0.583566
623 1 0.977222 0.462795 0.572237
1100 2 0.822728 0.431362 0.548329
946 1 0.930422 0.330866 0.554373
742 2 0.898528 0.317494 0.572324
899 1 0.728348 0.498333 0.514684
1084 1 0.568766 0.492599 0.409801
487 5 0.502399 0.0660351 0.547379
300 2 0.568827 0.191729 0.648415
1043 1 0.627802 0.20119 0.654174
788 1 0.726848 0.172388 0.647715
354 2 0.705602 0.20077 0.604775
441 2 0.633342 0.0239144 0.622008
748 1 0.667652 0.218816 0.621693
46 5 0.867613 0.0523904 0.682251
1152 1 0.671017 0.0616685 0.632754
122 5 0.721077 0.0874467 0.662216
656 2 0.683819 0.216266 0.642646
539 1 0.53197 0.141041 0.648351
1025 1 0.530786 0.154457 0.615707
240 1 0.551452 0.24937 0.606253
601 1 0.542728 0.245081 0.639746
448 5 0.756933 0.10147 0.627182
630 3 0.80925 0.00225913 0.640016
932 1 0.822673 0.0581718 0.651177
194 5 0.957597 0.0876048 0.655118
33 5 0.866285 0.155389 0.646571
383 1 0.950391 0.209061 0.652171
93 1 0.968383 0.237797 0.617324
666 1 0.868483 0.232942 0.607317
975 5 0.923324 0.0706217 0.610791
335 1 0.845126 0.133439 0.617764
292 2 0.827165 0.183097 0.606415
1151 1 0.767017 0.206694 0.611464
1140 2 0.986216 0.200387 0.634421
136 5 0.98954 0.323931 0.621157
162 1 0.974019 0.139967 0.627887
498 1 0.973796 0.418488 0.605579
355 1 0.701637 0.385631 0.650762
223 1 0.636784 0.417757 0.626624
933 2 0.646719 0.358422 0.614643
642 2 0.691151 0.438006 0.638157
527 1 0.705893 0.342123 0.619979
457 2 0.727504 0.331539 0.641284
771 1 0.706806 0.27413 0.647928
1130 2 0.572695 0.43347 0.630219
641 1 0.556452 0.410492 0.648847
463 2 0.549136 0.286482 0.62335
1009 1 0.606205 0.318075 0.623607
193 1 0.542464 0.409517 0.613254
471 1 0.677711 0.49318 0.647912
675 1 0.74699 0.445058 0.627058
615 1 0.951078 0.00892932 0.63574
337 5 0.97303 0.422207 0.637134
1182 5 0.922217 0.276752 0.673051
1080 2 0.866605 0.383404 0.604918