ITEM: TIMESTEP
1300
ITEM: NUMBER OF ATOMS
1200
ITEM: BOX BOUNDS pp pp pp
-7.6266250050336382e-02 2.5098596345622489e+01
-7.6266250050336382e-02 2.5098596345622489e+01
-2.5251128845723162e+01 5.0273458941295317e+01
ITEM: ATOMS id type xs ys zs
760 1 0.0640645 0.136738 0.397829
419 1 0.226955 0.168193 0.361634
108 1 0.222839 0.0605275 0.36244
96 1 0.0458711 0.050147 0.381527
635 5 0.235616 0.205114 0.325716
1076 1 0.182663 0.0991893 0.33421
1193 1 0.112581 0.114074 0.365421
580 5 0.14876 0.212806 0.354159
269 2 0.0291064 0.22659 0.335368
638 5 0.105417 0.106262 0.319096
390 2 0.0916607 0.0937945 0.384959
645 3 0.155166 0.0723547 0.353055
967 1 0.0821463 0.198325 0.32891
542 1 0.142164 0.0704647 0.395856
804 1 0.239594 0.0209062 0.395778
1149 3 0.239106 0.112758 0.348602
787 1 0.403972 0.239698 0.361099
314 1 0.438568 0.189381 0.391919
590 2 0.483766 0.234058 0.388943
559 1 0.43363 0.0482017 0.36099
973 5 0.398686 0.125532 0.343202
468 2 0.38681 0.154874 0.398214
1174 1 0.299101 0.120887 0.338303
1037 1 0.37598 0.111156 0.382605
432 5 0.326237 0.179163 0.364152
196 2 0.389703 0.0490928 0.377264
500 5 0.443325 0.00200125 0.308982
465 1 0.331055 0.0246425 0.37272
907 1 0.412488 0.0195426 0.394664
624 3 0.494621 0.0189137 0.35422
309 5 0.236855 0.155663 0.39062
26 5 0.239508 0.450101 0.341608
577 2 0.102495 0.474185 0.365841
82 1 0.200855 0.290429 0.349959
1173 1 0.063654 0.307534 0.393315
40 5 0.115639 0.335364 0.340882
813 1 0.0412552 0.46387 0.372304
403 5 0.143759 0.344808 0.380041
1071 1 0.23711 0.339611 0.380954
834 1 0.139388 0.478212 0.384184
418 1 0.0353037 0.284979 0.341479
915 1 0.128819 0.422321 0.354143
904 5 0.0292071 0.354999 0.362238
456 1 0.468646 0.328158 0.347797
917 2 0.446794 0.491931 0.389968
935 2 0.432774 0.273563 0.345159
893 5 0.319036 0.278108 0.39554
460 1 0.33925 0.464853 0.345875
1053 1 0.286067 0.355946 0.349986
565 5 0.283469 0.430948 0.379336
346 2 0.24629 0.314765 0.361992
703 2 0.397931 0.476059 0.354996
241 1 0.453776 0.293515 0.389419
373 1 0.39768 0.475978 0.37683
1171 1 0.447725 0.439608 0.34974
409 1 0.470588 0.391161 0.379534
1159 2 0.423938 0.35073 0.384696
412 2 0.340841 0.317158 0.353699
628 1 0.37486 0.298269 0.336774
660 1 0.301719 0.276905 0.364563
151 1 0.380284 0.344959 0.368515
690 3 0.488487 0.390288 0.356694
793 3 0.263693 0.0112259 0.37264
929 1 0.47755 0.231171 0.337343
762 1 0.129687 0.0109456 0.353174
397 2 0.0225439 0.227477 0.474914
885 5 0.161692 0.199422 0.479468
1185 5 0.0955651 0.105125 0.488733
88 1 0.0223366 0.164094 0.479309
28 1 0.205966 0.105127 0.494773
62 5 0.241655 0.0322359 0.447409
953 5 0.0999248 0.0433632 0.429619
1060 5 0.135818 0.22695 0.441394
137 5 0.178013 0.125354 0.449069
377 2 0.048934 0.162955 0.416795
537 1 0.206383 0.0790222 0.422584
15 5 0.0558186 0.0835189 0.458142
353 1 0.0700468 0.226238 0.415631
1024 1 0.0790561 0.136266 0.433724
1070 2 0.185874 0.0404001 0.407413
20 1 0.15114 0.0396213 0.457575
786 2 0.00245284 0.462239 0.596594
170 1 0.0242887 0.00786251 0.411608
472 1 0.250558 0.0175313 0.480586
75 1 0.310547 0.0890518 0.494346
375 2 0.256219 0.0802196 0.483513
206 1 0.262218 0.223181 0.490232
407 1 0.481598 0.204736 0.495617
247 5 0.432794 0.108744 0.475294
378 2 0.462134 0.0237131 0.449123
516 1 0.452017 0.0875002 0.445927
406 1 0.474481 0.184432 0.435528
91 1 0.410238 0.125201 0.415637
920 2 0.462834 0.125633 0.428479
211 5 0.318423 0.0559023 0.409826
858 1 0.278525 0.186454 0.439599
443 2 0.306388 0.138164 0.4508
14 1 0.323439 0.0841592 0.440312
322 5 0.359834 0.247427 0.42652
968 1 0.260946 0.117889 0.465942
72 1 0.357136 0.164234 0.461587
32 5 0.284716 0.26151 0.462139
922 5 0.367097 0.220435 0.487182
706 1 0.427878 0.496665 0.56105
545 2 0.214204 0.00784542 0.526541
372 1 0.350908 0.340138 0.589249
977 1 0.280554 0.266837 0.52161
290 1 0.334961 0.189533 0.401779
1017 1 0.0804672 0.248715 0.467332
535 1 0.273465 0.423015 0.529823
69 2 0.21575 0.206554 0.59475
779 5 0.133689 0.45028 0.476523
227 1 0.436976 0.293328 0.581387
242 1 0.005583 0.26259 0.492305
754 1 0.0175037 0.446368 0.469809
78 5 0.148812 0.307649 0.47723
34 1 0.24108 0.422102 0.47859
663 1 0.115627 0.374184 0.458156
1079 5 0.233747 0.438806 0.412732
435 1 0.183329 0.316033 0.442141
392 1 0.00905807 0.418211 0.43529
208 1 0.212742 0.491076 0.442289
827 1 0.0920842 0.319693 0.427273
689 2 0.132181 0.356607 0.438572
722 1 0.0913172 0.479087 0.445886
1128 2 0.0298568 0.465199 0.448939
249 2 0.0974717 0.281129 0.409293
265 1 0.153694 0.400232 0.424981
741 5 0.0845482 0.447611 0.410316
188 5 0.225108 0.334353 0.411791
382 5 0.225102 0.239713 0.421662
533 1 0.158241 0.270788 0.403957
998 1 0.393946 0.367331 0.402859
102 5 0.486482 0.357434 0.451851
1078 1 0.383479 0.41006 0.470674
564 2 0.382121 0.367387 0.486979
139 5 0.257091 0.324161 0.490356
547 1 0.304368 0.486902 0.498557
561 1 0.356732 0.313204 0.479764
256 2 0.252311 0.480518 0.486197
447 2 0.491678 0.410204 0.491018
4 1 0.444367 0.365425 0.494081
204 1 0.468922 0.465852 0.49992
608 1 0.466652 0.459287 0.406923
696 5 0.423119 0.23422 0.458627
996 1 0.463419 0.288401 0.431013
1039 5 0.245077 0.37617 0.451406
109 1 0.319684 0.337983 0.425566
694 1 0.314567 0.457571 0.451217
494 2 0.359989 0.385493 0.420385
308 1 0.396528 0.40481 0.436884
633 1 0.327403 0.435531 0.412683
410 2 0.377679 0.444746 0.45246
340 1 0.380834 0.480202 0.591377
966 1 0.379252 0.442246 0.533905
784 2 0.436901 0.468019 0.54174
558 5 0.264691 0.328864 0.582786
550 1 0.129214 0.115991 0.519624
574 5 0.0367554 0.162394 0.513022
1155 1 0.113406 0.218564 0.505459
520 2 0.190896 0.12096 0.515163
811 1 0.220365 0.0731663 0.526329
643 1 0.215688 0.17947 0.519819
785 1 0.107297 0.0790791 0.58109
857 1 0.208793 0.0528455 0.578739
303 1 0.485291 0.425676 0.540006
114 2 0.241171 0.00732142 0.590031
1089 1 0.00886214 0.0770781 0.58858
1006 1 0.0446712 0.123084 0.547263
738 3 0.072908 0.223257 0.591139
647 2 0.167004 0.102887 0.575241
192 1 0.157231 0.120373 0.555315
632 1 0.0230233 0.179724 0.584473
897 2 0.0566847 0.0362338 0.584424
826 3 0.10662 0.0965919 0.539882
680 1 0.100946 0.0286185 0.542387
548 1 0.182951 0.154035 0.587335
803 5 0.211402 0.199447 0.550702
219 1 0.114016 0.23511 0.572253
10 1 0.259448 0.230458 0.581156
991 5 0.342458 0.110081 0.592904
100 2 0.332594 0.405033 0.524566
1109 1 0.498585 0.142779 0.523743
296 1 0.0645347 0.0198446 0.503422
23 1 0.352128 0.0809632 0.527753
298 2 0.266939 0.211978 0.51134
101 1 0.315999 0.171644 0.514107
854 2 0.346161 0.115964 0.510077
470 2 0.452421 0.170114 0.511344
413 1 0.423044 0.20997 0.525282
684 1 0.485063 0.0144839 0.524665
833 1 0.406917 0.131113 0.503118
81 1 0.417203 0.0175493 0.58932
961 2 0.447195 0.0756685 0.58788
900 3 0.424569 0.230921 0.589926
945 5 0.480114 0.182651 0.553825
42 1 0.481195 0.195901 0.586678
1161 1 0.430933 0.0983289 0.568541
1066 5 0.375057 0.138066 0.548556
596 1 0.296113 0.152608 0.562386
1199 2 0.311064 0.211781 0.56977
220 1 0.304341 0.0118261 0.58679
646 5 0.282912 0.0630062 0.552789
837 5 0.382188 0.0259353 0.552864
438 1 0.366101 0.211396 0.580337
1117 5 0.104018 0.370478 0.59202
518 1 0.0522556 0.290894 0.596894
1001 2 0.126516 0.27219 0.516501
92 1 0.0777946 0.314125 0.511257
916 1 0.0363755 0.46098 0.507722
605 1 0.180054 0.296783 0.509393
424 2 0.0157306 0.312787 0.505068
798 5 0.201339 0.389222 0.507502
1013 1 0.348169 0.384434 0.504343
317 3 0.228797 0.458558 0.581484
611 1 0.239337 0.32648 0.548103
215 1 0.207281 0.411331 0.566173
367 5 0.0600024 0.39896 0.534027
366 1 0.0483456 0.309209 0.554999
759 1 0.14636 0.329114 0.563478
231 2 0.106944 0.280458 0.557471
153 1 0.127408 0.259094 0.538107
685 2 0.00593446 0.496003 0.523021
127 1 0.154493 0.387126 0.535379
352 1 0.0686865 0.464442 0.595678
174 2 0.189134 0.365907 0.552146
439 5 0.129269 0.465059 0.554107
556 1 0.174989 0.477241 0.595824
652 5 0.412002 0.287571 0.544637
342 5 0.140607 0.474716 0.522373
1099 1 0.419693 0.387056 0.567047
348 5 0.492602 0.336977 0.554405
812 2 0.412432 0.35169 0.584684
1118 1 0.281718 0.433617 0.593174
943 5 0.458023 0.292183 0.514087
1057 1 0.315031 0.256567 0.553548
1194 5 0.33258 0.434835 0.564244
861 1 0.49086 0.483075 0.590236
105 2 0.292804 0.301127 0.539201
1105 1 0.338063 0.346708 0.535243
257 3 0.00304918 0.00729745 0.493461
395 5 0.357546 0.00088739 0.512422
86 1 0.4164 0.000487346 0.462764
123 1 0.239895 0.166758 0.644488
610 1 0.2548 0.176978 0.609813
1131 5 0.179993 0.00915142 0.676948
142 1 0.184014 0.112524 0.671084
711 5 0.097636 0.0989581 0.615932
700 1 0.14251 0.150109 0.640452
359 1 0.20813 0.0687544 0.641947
1126 1 0.101432 0.195918 0.61159
47 2 0.111731 0.203322 0.633175
94 1 0.054415 0.2137 0.642316
230 2 0.192858 0.125868 0.651088
1108 5 0.0296513 0.0259677 0.629849
986 1 0.231464 0.0265756 0.610542
337 5 0.00731357 0.450427 0.6349
162 1 0.0144868 0.129553 0.630056
1094 2 0.255341 0.0422388 0.629956
1072 1 0.441575 0.161593 0.638119
753 1 0.477627 0.0568836 0.634124
209 1 0.416661 0.231212 0.612693
255 1 0.338819 0.190564 0.631826
365 1 0.291146 0.0941786 0.626309
111 2 0.401748 0.210123 0.632113
651 2 0.283475 0.159228 0.628433
415 1 0.42997 0.110114 0.604523
525 2 0.472001 0.373144 0.621547
1042 2 0.488539 0.120178 0.632234
1085 2 0.120221 0.488762 0.60628
344 1 0.442672 0.376548 0.602234
458 1 0.148211 0.255341 0.635875
51 1 0.161148 0.393584 0.651524
343 1 0.240887 0.300471 0.63192
1114 2 0.184023 0.295457 0.622354
1145 1 0.0638461 0.37759 0.639131
1183 5 0.161177 0.298601 0.665034
870 1 0.150505 0.350187 0.621218
631 1 0.122643 0.452239 0.624547
1069 2 0.123202 0.394352 0.634237
639 5 0.229224 0.454362 0.641436
551 1 0.191552 0.261741 0.603689
909 5 0.0291838 0.383731 0.667905
1000 1 0.33786 0.407161 0.654956
54 1 0.391437 0.497557 0.646987
71 2 0.3785 0.435369 0.640587
999 1 0.400853 0.264423 0.64333
31 5 0.336294 0.301262 0.620164
607 2 0.328525 0.465673 0.603141
202 5 0.304029 0.32368 0.65602
956 1 0.346916 0.442011 0.621931
1150 1 0.430371 0.399434 0.63712
50 5 0.131059 0.475361 0.665421
370 1 0.106514 0.532431 0.355905
388 1 0.237223 0.73506 0.388313
1136 1 0.195214 0.741676 0.357892
575 1 0.234467 0.516573 0.395503
1062 5 0.473042 0.810287 0.396496
1101 1 0.152886 0.579453 0.384878
763 1 0.0870615 0.753887 0.357801
708 1 0.130556 0.654991 0.358298
85 1 0.0520624 0.610486 0.377058
839 2 0.134592 0.717676 0.366369
572 2 0.169328 0.528808 0.396495
1144 3 0.110932 0.593725 0.36729
422 5 0.0352587 0.725194 0.38023
1135 1 0.127472 0.716523 0.387063
429 5 0.234532 0.640694 0.382729
734 5 0.362356 0.708665 0.378451
919 1 0.43094 0.552255 0.399243
1033 1 0.40612 0.644035 0.343079
1064 1 0.48613 0.60074 0.362397
918 1 0.415354 0.538214 0.349708
715 2 0.421802 0.599034 0.356763
579 1 0.387114 0.609046 0.374902
124 2 0.40512 0.610188 0.396475
668 5 0.391392 0.582676 0.317205
9 1 0.498703 0.510536 0.378033
598 1 0.447463 0.657203 0.399435
1122 1 0.245403 0.948467 0.36503
1088 2 0.20884 0.898338 0.370129
286 1 0.230577 0.839371 0.36862
797 1 0.193887 0.908139 0.392578
89 1 0.15374 0.908358 0.359353
750 5 0.332077 0.864662 0.353869
416 1 0.051678 0.931983 0.356197
6 5 0.0276303 0.834776 0.353077
519 2 0.109046 0.95632 0.361767
747 1 0.109061 0.960073 0.383665
853 5 0.146419 0.803574 0.394823
679 1 0.296992 0.901403 0.393006
404 1 0.312422 0.772443 0.360612
1186 1 0.490508 0.952551 0.36028
697 5 0.371032 0.942215 0.382225
758 1 0.438758 0.878468 0.378309
52 5 0.35301 0.831189 0.38513
176 5 0.407803 0.741488 0.345325
914 1 0.498299 0.948552 0.393825
634 2 0.496002 0.910389 0.376519
84 3 0.24753 0.770678 0.36748
985 5 0.326671 0.513449 0.396382
969 1 0.494748 0.780352 0.364484
993 5 0.00473303 0.864156 0.398336
1007 1 0.182504 0.609725 0.480933
12 5 0.0902668 0.743472 0.473468
1157 1 0.0986182 0.654315 0.462999
844 2 0.234663 0.75308 0.486414
531 1 0.224757 0.729319 0.425286
718 1 0.251236 0.629333 0.419977
620 2 0.205816 0.669686 0.42821
135 1 0.19458 0.66136 0.449576
1058 1 0.147144 0.667036 0.418662
670 1 0.14601 0.570928 0.450146
444 1 0.146092 0.524204 0.416062
445 3 0.149108 0.510747 0.438832
994 5 0.042784 0.601445 0.441624
446 1 0.0467131 0.689124 0.408689
1137 2 0.108345 0.711516 0.407668
1169 2 0.155637 0.624203 0.461593
221 2 0.295688 0.82503 0.579711
11 1 0.170065 0.751806 0.487361
479 1 0.462496 0.995654 0.429974
1112 3 0.203198 0.572821 0.499113
310 5 0.280094 0.913028 0.542608
739 5 0.063676 0.586237 0.408962
45 1 0.198288 0.502622 0.496174
1083 1 0.323285 0.638061 0.475704
213 5 0.355928 0.5388 0.479274
1002 1 0.262254 0.52141 0.469506
1018 2 0.294298 0.644668 0.495074
349 1 0.255789 0.697015 0.494621
1197 2 0.448379 0.748776 0.467279
749 1 0.395739 0.709471 0.467256
554 5 0.45357 0.660747 0.492791
238 1 0.48179 0.561459 0.433427
501 5 0.475323 0.659681 0.434072
499 1 0.407453 0.722186 0.43148
528 1 0.415945 0.610824 0.459301
1049 3 0.452018 0.555482 0.454012
1031 1 0.335984 0.64362 0.441496
789 1 0.300322 0.548652 0.435191
562 1 0.322969 0.739867 0.409984
847 1 0.350397 0.607918 0.408915
911 2 0.309576 0.607096 0.42548
740 2 0.272574 0.504926 0.448545
1038 2 0.367648 0.654192 0.460238
1156 3 0.258702 0.76092 0.408661
637 1 0.157813 0.985359 0.414025
426 1 0.0670968 0.859062 0.468695
1087 1 0.126815 0.967212 0.482669
167 5 0.143477 0.866875 0.490007
374 1 0.24715 0.904618 0.488
705 2 0.236166 0.914246 0.445646
603 1 0.242691 0.919301 0.424202
475 5 0.0245862 0.923576 0.430902
823 5 0.163808 0.769139 0.449656
180 5 0.0988744 0.859488 0.438034
35 1 0.111982 0.763369 0.419904
594 1 0.179465 0.938615 0.452328
988 2 0.133386 0.978811 0.461176
252 1 0.00523451 0.93928 0.486614
892 1 0.0762204 0.973278 0.45291
997 5 0.0428402 0.788469 0.444658
334 1 0.101494 0.890279 0.408314
434 1 0.256062 0.804017 0.497562
234 3 0.362705 0.976509 0.591623
592 1 0.372891 0.831185 0.537341
70 2 0.0141414 0.880135 0.478041
877 1 0.449834 0.978739 0.495639
815 2 0.139752 0.936704 0.401423
183 2 0.247455 0.889128 0.405326
941 1 0.348616 0.958179 0.48565
764 1 0.337174 0.829454 0.470591
881 1 0.252141 0.761753 0.465767
1015 3 0.281885 0.957493 0.479009
294 1 0.431946 0.899568 0.47304
293 1 0.457513 0.773932 0.487241
805 5 0.487812 0.776057 0.429638
874 2 0.411175 0.956975 0.479451
140 1 0.391939 0.815273 0.416136
699 1 0.401026 0.927249 0.411929
958 3 0.394454 0.854254 0.46144
325 1 0.432781 0.799938 0.455374
277 1 0.474942 0.864447 0.423572
898 3 0.448646 0.977468 0.408228
356 2 0.411556 0.873791 0.423188
1034 1 0.379974 0.885887 0.4417
226 1 0.282535 0.94973 0.455169
138 1 0.322108 0.778378 0.440717
513 2 0.290756 0.806707 0.457043
980 5 0.352661 0.994004 0.4389
144 2 0.364274 0.762275 0.424983
942 1 0.249348 0.853102 0.450343
386 1 0.239294 0.826557 0.408118
1111 1 0.0784687 0.994506 0.599245
1189 5 0.141637 0.674304 0.506944
549 1 0.0596894 0.662421 0.525345
1147 5 0.0769118 0.578962 0.51085
665 2 0.0194493 0.710498 0.52586
657 1 0.17208 0.587379 0.51863
618 5 0.246062 0.514553 0.531018
655 5 0.225324 0.646112 0.533963
120 1 0.237258 0.608555 0.565729
910 5 0.110714 0.607253 0.543548
182 1 0.151333 0.547471 0.567402
39 1 0.0560789 0.504482 0.536625
616 1 0.0413673 0.617604 0.57405
506 1 0.143423 0.638259 0.580225
1142 5 0.0572107 0.521115 0.56856
820 2 0.0814243 0.659638 0.583462
751 1 0.163928 0.721384 0.550206
145 1 0.081038 0.714844 0.572782
1061 2 0.186416 0.59173 0.577796
7 1 0.0188332 0.736389 0.505511
544 1 0.217017 0.582021 0.596555
305 1 0.496536 0.713574 0.459703
307 2 0.365351 0.702035 0.524393
678 1 0.340246 0.66261 0.50983
568 5 0.347449 0.545569 0.517395
168 1 0.268609 0.591226 0.502691
978 2 0.468681 0.526508 0.507037
283 1 0.398088 0.749582 0.514439
387 1 0.428062 0.567985 0.497808
581 1 0.414697 0.672294 0.5355
902 1 0.412089 0.660033 0.569361
181 1 0.436268 0.568267 0.586942
1170 2 0.441104 0.693923 0.554117
541 5 0.404855 0.580498 0.547111
281 1 0.314963 0.570526 0.545895
79 1 0.320947 0.717991 0.538765
1 1 0.333515 0.587546 0.578942
143 1 0.260143 0.509472 0.569777
1028 3 0.389878 0.621055 0.5862
534 2 0.288116 0.568102 0.56475
886 5 0.254597 0.715417 0.562141
268 1 0.451827 0.518461 0.528206
1023 1 0.291659 0.8718 0.595235
862 1 0.0125586 0.979744 0.534148
949 5 0.00873859 0.885046 0.523572
490 5 0.113439 0.841022 0.526419
1050 1 0.0872669 0.920037 0.511678
474 1 0.164821 0.992895 0.514122
576 2 0.11212 0.975715 0.503673
246 1 0.206581 0.866431 0.518174
702 1 0.0271791 0.76219 0.539054
841 5 0.247862 0.794522 0.53362
1116 1 0.216532 0.948025 0.59169
1141 1 0.21203 0.986844 0.546924
262 1 0.170013 0.752923 0.583754
727 3 0.0778286 0.871274 0.564032
860 2 0.0619045 0.979333 0.547812
451 5 0.151763 0.983404 0.568549
405 1 0.0921222 0.896821 0.584945
765 1 0.115882 0.814749 0.561591
399 5 0.187339 0.887659 0.548979
376 1 0.0928895 0.922399 0.549202
482 1 0.0147114 0.851821 0.559152
567 2 0.130931 0.752188 0.566
816 1 0.256764 0.840914 0.563934
1115 1 0.283298 0.769101 0.589392
1113 1 0.492331 0.806477 0.520704
1011 2 0.256474 0.865583 0.504533
1184 1 0.311607 0.87571 0.51487
495 1 0.399233 0.929301 0.529004
1093 2 0.372579 0.874474 0.521938
41 1 0.267608 0.981343 0.518357
511 1 0.408039 0.849271 0.505872
83 2 0.441764 0.793391 0.507007
368 2 0.399143 0.814717 0.556516
414 1 0.461256 0.966143 0.558036
719 3 0.461899 0.954098 0.534199
1095 1 0.450129 0.782623 0.591924
315 1 0.42844 0.757022 0.555133
484 1 0.4392 0.863257 0.560329
450 2 0.435347 0.919276 0.570293
360 1 0.455478 0.91186 0.590551
731 1 0.353938 0.818196 0.571453
905 1 0.372051 0.931874 0.57299
398 5 0.00340773 0.666341 0.463693
640 1 0.0436498 0.998265 0.567572
851 1 0.408885 0.500601 0.453628
952 2 0.433925 0.504273 0.582034
1059 1 0.0027155 0.505737 0.401073
913 5 0.0949504 0.694725 0.65799
68 1 0.218247 0.552964 0.629637
852 2 0.240789 0.689436 0.663639
99 2 0.492221 0.926295 0.607439
329 1 0.227603 0.640504 0.651202
950 2 0.187957 0.593341 0.643747
710 1 0.221797 0.743799 0.652514
1166 1 0.208598 0.682908 0.68247
627 1 0.0675578 0.610295 0.667645
819 1 0.0772035 0.656679 0.605089
1020 1 0.0288301 0.742915 0.634055
609 2 0.0926502 0.609597 0.619029
704 1 0.171649 0.55637 0.659556
891 1 0.10517 0.551438 0.61087
455 1 0.145213 0.623122 0.63095
955 1 0.0442704 0.605128 0.633254
393 5 0.136345 0.613935 0.688172
906 2 0.0328215 0.575984 0.653231
1104 1 0.0528032 0.514643 0.652091
931 1 0.294222 0.996371 0.638104
282 5 0.487938 0.617424 0.616279
521 1 0.191565 0.842698 0.600472
437 5 0.279112 0.61123 0.687867
483 1 0.464425 0.530206 0.625361
1008 1 0.409222 0.716951 0.654283
1191 1 0.462697 0.730358 0.622236
1074 2 0.423438 0.554269 0.641696
106 1 0.461863 0.578113 0.657139
119 1 0.382619 0.655082 0.605971
125 1 0.303847 0.688798 0.667721
1125 2 0.254622 0.566244 0.613009
186 2 0.344936 0.71918 0.654515
923 1 0.287943 0.619168 0.618993
733 1 0.298554 0.521689 0.60767
927 1 0.333185 0.695117 0.634839
363 1 0.382345 0.600415 0.634523
129 2 0.345606 0.642151 0.623108
17 2 0.49029 0.745272 0.602825
1180 5 0.366755 0.752106 0.603724
867 5 0.3909 0.85685 0.604021
1103 2 0.463052 0.998067 0.641151
937 3 0.223741 0.89936 0.64559
442 2 0.234322 0.893787 0.60226
1167 2 0.216443 0.786638 0.635812
588 1 0.18838 0.757428 0.619155
653 1 0.235944 0.913529 0.623442
80 1 0.181157 0.841381 0.640508
712 1 0.0978396 0.778192 0.607712
1067 2 0.162469 0.78443 0.60167
502 2 0.0104509 0.863907 0.642068
802 2 0.0381975 0.776359 0.615396
244 3 0.128711 0.892878 0.639831
324 1 0.169574 0.94097 0.650539
1124 2 0.0696624 0.929793 0.601971
1003 1 0.0701057 0.876661 0.649742
60 1 0.102283 0.910163 0.618881
345 1 0.0176467 0.83415 0.623007
1123 1 0.358233 0.957751 0.61345
205 5 0.346633 0.876996 0.678278
104 5 0.241704 0.801187 0.683167
177 3 0.332118 0.829232 0.641196
217 1 0.274132 0.808727 0.630569
960 1 0.261224 0.8738 0.662199
1110 2 0.34721 0.958494 0.634884
1014 1 0.400219 0.986771 0.645828
1106 1 0.390744 0.79739 0.633797
338 1 0.486552 0.793474 0.648072
838 1 0.468492 0.958513 0.62406
491 2 0.439236 0.756795 0.640845
132 1 0.328783 0.78137 0.659964
908 1 0.342272 0.895008 0.640661
440 5 0.240112 0.687445 0.600137
459 1 0.00895824 0.721824 0.667332
1046 1 0.00449037 0.923526 0.600554
285 1 0.728175 0.160294 0.389651
725 1 0.648566 0.0641773 0.373032
464 1 0.702876 0.129073 0.35059
1178 2 0.721934 0.210734 0.377419
1092 2 0.697472 0.0684929 0.359118
810 1 0.753587 0.0548432 0.369025
1016 5 0.601138 0.146832 0.371342
321 1 0.547709 0.0391552 0.368142
934 1 0.5187 0.225161 0.371062
1148 2 0.597129 0.027079 0.380919
757 1 0.527868 0.146168 0.348592
328 2 0.528445 0.209311 0.349726
688 1 0.695225 0.235741 0.338213
845 1 0.508754 0.0196039 0.332013
984 1 0.665702 0.221004 0.368418
121 5 0.577448 0.0791522 0.335343
267 1 0.588992 0.231422 0.344434
799 2 0.755512 0.323555 0.395131
903 1 0.681748 0.0234747 0.343601
385 5 0.749617 0.00879158 0.320334
1026 1 0.769353 0.208277 0.361283
614 1 0.992455 0.194961 0.352039
1073 2 0.817733 0.0597646 0.374912
818 2 0.843609 0.119226 0.338868
330 1 0.899054 0.151043 0.334866
540 5 0.83028 0.181811 0.384523
957 1 0.95003 0.0589407 0.39418
992 5 0.952782 0.0837457 0.36357
288 2 0.939363 0.200604 0.338597
1068 1 0.796142 0.157864 0.3318
990 1 0.845065 0.102797 0.36065
107 1 0.839429 0.0636202 0.327675
585 3 0.738127 0.183642 0.341822
389 1 0.977126 0.219981 0.322031
341 1 0.938889 0.449416 0.382101
1163 1 0.820587 0.0838506 0.394435
1045 1 0.829817 0.319837 0.359028
1146 5 0.989465 0.233353 0.384271
555 1 0.770491 0.397651 0.343944
497 5 0.689313 0.402932 0.329386
159 2 0.999575 0.0171917 0.391993
940 1 0.587481 0.33425 0.38645
729 1 0.634956 0.313046 0.35542
16 2 0.64696 0.251898 0.350164
396 1 0.73848 0.466797 0.377857
254 2 0.674059 0.465805 0.37857
77 1 0.650663 0.406999 0.373947
774 1 0.558958 0.389733 0.356987
1192 2 0.607229 0.361563 0.368083
428 1 0.629832 0.478218 0.330885
477 5 0.966348 0.378233 0.326862
649 1 0.651741 0.480864 0.398252
732 2 0.800612 0.460625 0.382942
676 1 0.750512 0.356012 0.377223
692 2 0.791523 0.371804 0.361457
745 3 0.903859 0.416506 0.364461
1010 1 0.894755 0.277359 0.382278
1096 1 0.735109 0.262468 0.38919
436 1 0.916505 0.447164 0.344611
299 1 0.928797 0.349569 0.35886
1200 1 0.832108 0.414849 0.371142
261 1 0.903857 0.247507 0.348196
947 2 0.889026 0.298228 0.361533
686 2 0.988089 0.491124 0.381023
835 1 0.971628 0.00928377 0.346108
921 5 0.933233 0.0354896 0.320282
822 5 0.603144 0.24392 0.39756
807 5 0.529775 0.377508 0.315761
297 1 0.821205 0.317165 0.398932
1032 1 0.84194 0.000422112 0.374768
1019 5 0.541429 0.109703 0.4686
1030 2 0.530987 0.239223 0.48687
146 1 0.574426 0.196005 0.480175
691 1 0.631707 0.118935 0.490794
713 1 0.651141 0.0171515 0.501051
613 2 0.637496 0.177376 0.480339
179 1 0.680429 0.20815 0.492232
469 5 0.735185 0.0569371 0.481069
783 1 0.679781 0.0583993 0.456228
2 1 0.61311 0.10177 0.43265
454 1 0.656221 0.161312 0.460127
401 5 0.740241 0.211248 0.459853
128 5 0.605181 0.00943816 0.466441
489 1 0.717233 0.122649 0.433393
864 2 0.665605 0.112466 0.445762
795 5 0.680172 0.195258 0.415906
3 2 0.580489 0.099376 0.413486
30 1 0.517769 0.109118 0.417853
115 1 0.517894 0.235663 0.407348
517 5 0.727968 0.07511 0.402251
840 1 0.589762 0.0480639 0.40102
736 5 0.818563 0.036762 0.597557
1175 1 0.601342 0.152267 0.40252
770 1 0.518574 0.0174446 0.4587
693 5 0.770378 0.245404 0.496336
478 1 0.791287 0.134977 0.475884
682 5 0.945812 0.123321 0.493914
253 5 0.889898 0.0518308 0.476177
622 2 0.84305 0.173405 0.476443
493 5 0.91045 0.141916 0.403839
116 1 0.855724 0.180626 0.497755
199 5 0.882507 0.0331824 0.414712
683 1 0.980581 0.241781 0.459611
782 1 0.829782 0.23387 0.46891
582 5 0.899328 0.226201 0.440132
1179 5 0.972764 0.142738 0.449205
522 5 0.78861 0.152379 0.416203
214 1 0.86147 0.223906 0.409898
829 1 0.893333 0.14946 0.46639
95 5 0.797028 0.080494 0.450251
672 1 0.754263 0.257673 0.429258
737 2 0.761617 0.380518 0.588155
218 5 0.618607 0.369868 0.471305
1052 5 0.683491 0.299672 0.491672
1168 5 0.728388 0.435423 0.491231
546 2 0.602604 0.285061 0.444795
721 5 0.618278 0.375603 0.4143
593 3 0.657458 0.488001 0.455942
433 1 0.719041 0.340035 0.447416
312 1 0.649482 0.276561 0.429113
1004 2 0.748786 0.39412 0.454747
44 2 0.709904 0.302239 0.430125
57 1 0.632272 0.278002 0.463913
37 1 0.724917 0.340325 0.413128
669 1 0.702788 0.436686 0.459631
767 1 0.599114 0.474422 0.466887
586 1 0.585172 0.346219 0.443306
536 1 0.524221 0.466438 0.439688
1133 1 0.556867 0.245429 0.440757
863 2 0.537686 0.474923 0.460209
591 5 0.994686 0.365339 0.408581
976 5 0.509111 0.370953 0.413955
880 1 0.503788 0.428959 0.471274
687 1 0.504307 0.071269 0.494093
1091 1 0.784799 0.376965 0.471904
761 3 0.842741 0.378073 0.484482
476 5 0.916156 0.281983 0.480488
357 2 0.87521 0.488519 0.493845
263 1 0.895691 0.370889 0.470939
1138 1 0.936539 0.466727 0.496237
735 1 0.835755 0.43922 0.496417
636 1 0.854989 0.49556 0.428207
674 1 0.800588 0.437735 0.403277
64 2 0.798615 0.46411 0.424187
131 1 0.916199 0.312145 0.41651
1021 5 0.83464 0.309277 0.446677
1190 5 0.938571 0.461155 0.417441
1035 5 0.913622 0.441396 0.452085
103 1 0.785298 0.419033 0.439157
487 5 0.505623 0.0532587 0.553157
467 2 0.875923 0.282824 0.402722
364 1 0.998249 0.365786 0.494356
1121 2 0.562893 0.136859 0.52833
1054 5 0.982429 0.343442 0.462571
164 1 0.588144 0.0845488 0.520081
58 1 0.691599 0.0986249 0.519219
901 2 0.641293 0.0780107 0.507202
304 1 0.590896 0.191652 0.521714
1041 1 0.56792 0.133049 0.549967
936 1 0.714117 0.0304923 0.590346
1139 1 0.640559 0.0935726 0.570033
53 1 0.687258 0.131211 0.597501
626 2 0.611579 0.149392 0.564759
210 5 0.738938 0.0630256 0.540813
339 2 0.693075 0.0850001 0.582201
43 5 0.68727 0.200456 0.527023
369 1 0.645471 0.195851 0.556195
971 1 0.691331 0.233228 0.587775
830 1 0.580392 0.166726 0.583197
350 2 0.559129 0.0212794 0.588526
250 2 0.534741 0.1831 0.597653
1195 1 0.512242 0.0648117 0.587041
130 5 0.998104 0.3554 0.583055
1154 5 0.778239 0.128783 0.508876
515 5 0.872084 0.101324 0.527149
408 1 0.956911 0.139852 0.527694
384 5 0.896525 0.217998 0.522736
224 1 0.807981 0.0417248 0.518062
1198 1 0.808093 0.18369 0.55431
157 1 0.912671 0.0380872 0.579454
1005 1 0.840982 0.0848003 0.559272
332 1 0.956595 0.137741 0.563427
1187 2 0.882915 0.0345463 0.560889
809 2 0.979041 0.131778 0.583531
118 2 0.804068 0.132523 0.566704
147 1 0.91752 0.026897 0.542782
570 1 0.935165 0.151941 0.59773
200 2 0.989455 0.155607 0.545656
273 1 0.819357 0.143622 0.587562
228 1 0.742172 0.110797 0.569036
871 3 0.996288 0.434048 0.491355
794 1 0.95111 0.0112387 0.509183
677 1 0.993801 0.21916 0.543739
801 1 0.561297 0.494707 0.551491
73 2 0.582576 0.256358 0.523106
152 1 0.625491 0.354142 0.595639
895 1 0.549972 0.399248 0.500252
427 2 0.603945 0.419158 0.51065
509 1 0.594521 0.408946 0.531846
878 1 0.556701 0.273078 0.503586
924 1 0.610481 0.482392 0.507508
235 1 0.637475 0.293066 0.52493
279 1 0.655703 0.383423 0.504967
899 1 0.725775 0.496911 0.51576
948 3 0.684837 0.349035 0.523073
431 2 0.688856 0.473447 0.589029
379 2 0.718956 0.467253 0.53457
720 1 0.738842 0.27034 0.557307
890 1 0.728106 0.42878 0.597672
831 2 0.625858 0.373502 0.575265
98 1 0.727026 0.327159 0.584473
203 2 0.695912 0.280265 0.572296
716 1 0.708839 0.402844 0.535275
391 1 0.656206 0.431172 0.576011
351 1 0.644853 0.318659 0.565593
189 1 0.77662 0.473571 0.544818
1119 3 0.549197 0.426077 0.548993
1056 1 0.532575 0.266044 0.536973
850 1 0.567483 0.387766 0.567228
1081 5 0.553785 0.277017 0.573944
172 1 0.666295 0.49124 0.543505
869 3 0.990124 0.287357 0.545457
612 1 0.745991 0.320717 0.515938
884 1 0.821886 0.276765 0.533591
843 5 0.912041 0.375094 0.526416
488 1 0.984209 0.310125 0.523894
825 2 0.807601 0.328246 0.521924
133 1 0.843325 0.337132 0.504131
18 1 0.78495 0.401365 0.569021
982 3 0.802791 0.253611 0.554359
1102 1 0.875319 0.444915 0.556905
769 1 0.839619 0.282481 0.572115
291 1 0.90083 0.358099 0.587355
1158 1 0.923456 0.255714 0.588661
623 1 0.981536 0.457548 0.57594
1100 2 0.815739 0.425336 0.551674
946 1 0.933249 0.306603 0.557324
742 2 0.9004 0.302695 0.575975
266 1 0.96443 0.463504 0.536385
529 1 0.817225 0.376456 0.536487
530 3 0.938811 0.473462 0.558464
726 1 0.861993 0.00625508 0.447279
746 1 0.98622 0.169601 0.420197
466 1 0.506994 0.278356 0.471986
557 2 0.504009 0.238191 0.428799
394 1 0.986062 0.0470871 0.476349
604 5 0.991243 0.268185 0.42812
930 2 0.500415 0.0130794 0.503128
300 2 0.572853 0.183509 0.650606
1043 1 0.63433 0.194689 0.654642
788 1 0.734787 0.168267 0.645258
354 2 0.697044 0.191936 0.604211
441 2 0.625523 0.0116743 0.622663
748 1 0.670355 0.209517 0.622694
875 1 0.606456 0.0323058 0.603416
1152 1 0.656704 0.0512006 0.635834
122 5 0.732687 0.0856864 0.662243
656 2 0.68809 0.210175 0.644124
539 1 0.535456 0.132871 0.648116
1025 1 0.524182 0.147622 0.615501
240 1 0.551989 0.241437 0.605423
601 1 0.551671 0.233027 0.640287
448 5 0.754703 0.0738372 0.633729
615 1 0.94199 0.0193759 0.638782
932 1 0.821306 0.0463392 0.657695
56 1 0.812024 0.369699 0.60195
33 5 0.888563 0.107487 0.645239
383 1 0.954866 0.186899 0.65285
93 1 0.96836 0.221476 0.619923
666 1 0.863885 0.209104 0.61265
975 5 0.91823 0.0635288 0.610149
335 1 0.8322 0.109299 0.619656
292 2 0.819764 0.162888 0.608813
1151 1 0.76186 0.192903 0.608869
38 3 0.510842 0.493937 0.612471
507 2 0.925149 0.212266 0.605029
355 1 0.720505 0.384935 0.651839
136 5 0.998178 0.321257 0.622917
223 1 0.628897 0.407602 0.624648
933 2 0.645596 0.349811 0.61676
642 2 0.724272 0.444605 0.646781
527 1 0.706575 0.337597 0.622192
457 2 0.731761 0.326634 0.642074
771 1 0.7041 0.27102 0.64853
1130 2 0.577827 0.440524 0.632274
641 1 0.576115 0.436185 0.652907
463 2 0.550945 0.274944 0.623759
1009 1 0.606803 0.306778 0.625615
193 1 0.519313 0.420518 0.621999
471 1 0.692658 0.496663 0.648443
430 5 0.795193 0.275559 0.60165
1182 5 0.910432 0.217375 0.678198
1080 2 0.877344 0.380766 0.606235
972 1 0.871888 0.443652 0.614252
1040 1 0.889017 0.300476 0.655933
963 1 0.863151 0.398884 0.645894
569 1 0.796316 0.319618 0.638997
65 1 0.888799 0.340468 0.622177
1132 2 0.847852 0.454147 0.634992
887 2 0.860743 0.334947 0.641465
675 1 0.780409 0.453727 0.637057
498 1 0.98238 0.40998 0.60717
1140 2 0.996841 0.189024 0.6364
194 5 0.964872 0.0909552 0.658823