ITEM: TIMESTEP
2900
ITEM: NUMBER OF ATOMS
1200
ITEM: BOX BOUNDS pp pp pp
-7.6266250050336382e-02 2.5098596345622489e+01
-7.6266250050336382e-02 2.5098596345622489e+01
-2.5251128845723162e+01 5.0273458941295317e+01
ITEM: ATOMS id type xs ys zs
760 1 0.0714977 0.145142 0.391551
419 1 0.229551 0.144967 0.369642
108 1 0.230976 0.040864 0.357373
96 1 0.0474864 0.0479068 0.38637
1076 1 0.19328 0.10665 0.336112
1193 1 0.121453 0.0798608 0.363683
580 5 0.147027 0.18964 0.352397
269 2 0.0243389 0.196987 0.339241
638 5 0.141242 0.146414 0.31487
390 2 0.0971807 0.0886745 0.383892
645 3 0.169962 0.0535263 0.348387
967 1 0.068359 0.156648 0.332008
542 1 0.145165 0.0712837 0.396824
409 1 0.468769 0.390347 0.379932
1149 3 0.248373 0.111366 0.35044
660 1 0.275822 0.273605 0.362238
412 2 0.348644 0.362625 0.347731
992 5 0.0514232 0.0564235 0.339872
635 5 0.31721 0.226852 0.334606
787 1 0.3998 0.239799 0.356974
314 1 0.444531 0.187804 0.387855
590 2 0.484529 0.238343 0.385036
559 1 0.429136 0.0373205 0.357696
973 5 0.439501 0.151534 0.356845
468 2 0.393405 0.15202 0.39357
1174 1 0.304811 0.134131 0.340619
1037 1 0.37752 0.110189 0.377918
432 5 0.326677 0.19032 0.366559
196 2 0.385753 0.0467922 0.373416
465 1 0.330795 0.0163492 0.369425
907 1 0.415524 0.024827 0.391552
1159 2 0.419766 0.348754 0.383718
929 1 0.474179 0.249885 0.333864
628 1 0.374211 0.315571 0.335217
151 1 0.372295 0.349741 0.367843
804 1 0.231625 0.00588589 0.390551
26 5 0.196105 0.41997 0.333613
577 2 0.0971718 0.473406 0.363361
82 1 0.187788 0.326721 0.353788
382 5 0.212731 0.224386 0.385383
40 5 0.0941946 0.323421 0.340769
813 1 0.0372448 0.458517 0.368665
403 5 0.142933 0.372986 0.376743
834 1 0.131473 0.478378 0.381685
418 1 0.0454223 0.24692 0.351238
915 1 0.118217 0.428606 0.350277
904 5 0.00858263 0.350623 0.370035
290 1 0.34559 0.193025 0.39854
1071 1 0.251233 0.3625 0.3805
456 1 0.463326 0.334651 0.351932
917 2 0.44156 0.483796 0.390502
935 2 0.427849 0.284025 0.344555
893 5 0.32683 0.286602 0.392591
460 1 0.371716 0.423611 0.343707
1053 1 0.285181 0.365679 0.347677
565 5 0.294097 0.44852 0.37889
346 2 0.246031 0.332662 0.361739
703 2 0.408185 0.468387 0.35301
241 1 0.446407 0.28923 0.385147
373 1 0.400571 0.465313 0.374666
1171 1 0.470011 0.450003 0.348363
1173 1 0.0708509 0.338257 0.395455
500 5 0.437105 0.0741214 0.326454
1146 5 0.00100741 0.223836 0.379613
624 3 0.498752 0.0133574 0.357115
690 3 0.498668 0.392067 0.359324
159 2 0.00176527 0.00788905 0.391808
397 2 0.0386083 0.228619 0.472043
885 5 0.190654 0.230247 0.474406
1185 5 0.125297 0.166302 0.485726
88 1 0.0370552 0.1653 0.474776
28 1 0.206119 0.111794 0.494321
62 5 0.254346 0.0426977 0.447424
953 5 0.0821121 0.0299169 0.428616
1060 5 0.182296 0.222031 0.431033
137 5 0.173376 0.114054 0.441033
377 2 0.0616483 0.173467 0.410914
537 1 0.224742 0.0686725 0.418696
15 5 0.0779335 0.0622952 0.472149
353 1 0.0549604 0.237858 0.406979
1024 1 0.111409 0.16504 0.423867
1070 2 0.191012 0.0318833 0.405353
20 1 0.147866 0.0176908 0.452886
1017 1 0.0962364 0.251921 0.466971
208 1 0.223632 0.491717 0.436607
472 1 0.255924 0.0286126 0.481049
75 1 0.308285 0.109582 0.498321
375 2 0.260669 0.0926619 0.484204
206 1 0.265481 0.230248 0.495923
407 1 0.485558 0.213838 0.497052
247 5 0.415493 0.109386 0.47355
378 2 0.458907 0.0273843 0.446177
516 1 0.454295 0.0921609 0.444567
406 1 0.465827 0.188949 0.429343
91 1 0.411015 0.120387 0.411834
920 2 0.460546 0.125023 0.426012
557 2 0.496349 0.243104 0.425608
858 1 0.269664 0.185752 0.437467
443 2 0.306192 0.147658 0.449555
14 1 0.328321 0.0943648 0.439471
968 1 0.268922 0.124343 0.465532
72 1 0.353871 0.181951 0.458296
922 5 0.363465 0.224573 0.488444
1194 5 0.304117 0.441682 0.560844
518 1 0.0458274 0.285281 0.59443
533 1 0.154979 0.276737 0.404751
779 5 0.139414 0.452953 0.475198
242 1 0.0192216 0.258544 0.490309
754 1 0.0339829 0.450581 0.470619
78 5 0.14983 0.320637 0.480522
663 1 0.111855 0.376581 0.45939
1079 5 0.233986 0.426839 0.408211
435 1 0.185951 0.309399 0.448138
871 3 0.0119358 0.430932 0.491589
69 2 0.21349 0.219614 0.597441
827 1 0.0924632 0.311452 0.428984
689 2 0.133279 0.344547 0.442532
722 1 0.0943046 0.476585 0.442307
1128 2 0.0322341 0.461213 0.449219
249 2 0.0929625 0.293029 0.408153
265 1 0.157973 0.388756 0.428565
741 5 0.0831534 0.425936 0.415711
188 5 0.230256 0.32978 0.41343
364 1 0.00578335 0.362155 0.494521
1039 5 0.250649 0.386893 0.445987
322 5 0.362199 0.220205 0.427864
32 5 0.280245 0.281938 0.448442
86 1 0.406066 0.00276678 0.457193
1105 1 0.327987 0.353633 0.535578
34 1 0.24609 0.427516 0.478338
998 1 0.395446 0.361578 0.403085
102 5 0.486943 0.359165 0.449059
1078 1 0.381947 0.417185 0.472659
564 2 0.381261 0.371101 0.487926
139 5 0.267783 0.325728 0.492769
556 1 0.175593 0.486486 0.598797
561 1 0.358002 0.316077 0.480875
256 2 0.25763 0.487693 0.484921
447 2 0.485583 0.414038 0.49077
4 1 0.444428 0.364513 0.494085
204 1 0.454472 0.468585 0.496627
608 1 0.463824 0.455712 0.408039
696 5 0.41675 0.271604 0.460476
996 1 0.454621 0.292425 0.429235
109 1 0.32545 0.333097 0.425991
694 1 0.313689 0.454926 0.448561
494 2 0.363611 0.382016 0.420802
308 1 0.393584 0.402796 0.438181
633 1 0.327844 0.430367 0.41344
410 2 0.373845 0.445744 0.453362
487 5 0.480707 0.0640581 0.550044
640 1 0.0552689 0.0127443 0.570055
550 1 0.1291 0.120767 0.520176
574 5 0.0176944 0.0897827 0.512855
1155 1 0.149991 0.232276 0.507299
520 2 0.191286 0.120663 0.515094
811 1 0.214223 0.0670003 0.52515
643 1 0.225206 0.168202 0.522085
785 1 0.11313 0.0837485 0.586599
857 1 0.210225 0.0642547 0.58086
114 2 0.242594 0.019796 0.592474
1089 1 0.00944973 0.0840411 0.592207
1006 1 0.0438223 0.122631 0.542692
738 3 0.0774804 0.226136 0.589448
647 2 0.166835 0.113187 0.577896
192 1 0.147746 0.123979 0.557944
632 1 0.0287343 0.180278 0.583556
897 2 0.0612903 0.0458728 0.589718
826 3 0.106175 0.0968765 0.540598
680 1 0.10653 0.0278582 0.541267
548 1 0.191541 0.166126 0.58735
803 5 0.196218 0.212303 0.551765
219 1 0.116706 0.244981 0.570854
296 1 0.0683035 0.0118363 0.499643
211 5 0.323742 0.0431517 0.410579
991 5 0.332926 0.116116 0.589322
10 1 0.259335 0.243194 0.584138
23 1 0.357537 0.0919187 0.53061
298 2 0.266912 0.216027 0.516642
101 1 0.324717 0.188524 0.520363
854 2 0.348317 0.131319 0.514334
470 2 0.457658 0.176804 0.512103
413 1 0.436299 0.219382 0.526959
684 1 0.482496 0.0159782 0.521309
833 1 0.407039 0.1429 0.505116
81 1 0.412748 0.0302295 0.591375
961 2 0.444003 0.0865633 0.588344
900 3 0.422563 0.235115 0.591337
945 5 0.474928 0.180696 0.55461
42 1 0.47881 0.193871 0.588296
1161 1 0.419486 0.114813 0.57069
1066 5 0.381493 0.172342 0.548914
596 1 0.291092 0.172112 0.561324
1199 2 0.310352 0.225421 0.571841
220 1 0.305893 0.0223747 0.587376
646 5 0.272976 0.0854818 0.551854
837 5 0.361085 0.0159813 0.552023
438 1 0.362037 0.210823 0.58359
392 1 0.00599377 0.410177 0.439495
861 1 0.487453 0.492404 0.596027
342 5 0.139653 0.498011 0.518804
1117 5 0.107785 0.362951 0.596044
930 2 0.494095 0.0172138 0.499298
1001 2 0.143534 0.290921 0.516124
92 1 0.0843886 0.313305 0.51071
916 1 0.04612 0.465595 0.508313
605 1 0.192197 0.328608 0.510435
424 2 0.0222292 0.307062 0.504574
798 5 0.202269 0.423574 0.510257
317 3 0.228353 0.474212 0.584676
611 1 0.237154 0.341502 0.552363
215 1 0.203762 0.430255 0.568737
367 5 0.0660453 0.397743 0.531567
366 1 0.049007 0.310197 0.552864
759 1 0.138905 0.347329 0.56632
231 2 0.109595 0.294991 0.557427
153 1 0.140384 0.287742 0.538359
127 1 0.15836 0.40836 0.538543
352 1 0.0651346 0.473318 0.589099
174 2 0.187176 0.381966 0.555695
439 5 0.112981 0.475824 0.558057
105 2 0.289262 0.308724 0.543961
1054 5 0.0212511 0.3434 0.464014
372 1 0.35136 0.334416 0.592338
706 1 0.43623 0.486693 0.563278
977 1 0.26542 0.266128 0.530008
535 1 0.276232 0.438507 0.530534
227 1 0.433808 0.291357 0.577094
340 1 0.383297 0.490137 0.594629
966 1 0.381815 0.44583 0.532387
784 2 0.438969 0.46143 0.543379
348 5 0.49255 0.328492 0.556353
303 1 0.48065 0.412853 0.542588
558 5 0.254711 0.349189 0.592035
100 2 0.331741 0.410156 0.524574
1013 1 0.347216 0.388406 0.505479
652 5 0.41118 0.292754 0.542149
1099 1 0.391843 0.387125 0.566124
547 1 0.307725 0.490123 0.4977
812 2 0.406636 0.348717 0.582977
1118 1 0.283129 0.436109 0.592722
943 5 0.473102 0.308355 0.517686
1057 1 0.323766 0.270661 0.556631
479 1 0.463521 0.0117074 0.425686
395 5 0.362043 0.0133054 0.509109
309 5 0.259676 0.147102 0.403946
746 1 0.00538791 0.150769 0.418681
545 2 0.216655 0.00186631 0.523965
130 5 0.00748976 0.357236 0.577318
344 1 0.447728 0.375755 0.596545
604 5 9.43922e-05 0.28513 0.427106
1131 5 0.152115 0.0253804 0.675937
142 1 0.171221 0.121108 0.671508
711 5 0.148541 0.0039615 0.6271
700 1 0.134398 0.150783 0.639146
359 1 0.210163 0.0748017 0.643611
1126 1 0.110521 0.198963 0.608194
47 2 0.110777 0.203365 0.629899
94 1 0.0493627 0.209798 0.635201
230 2 0.186879 0.131819 0.651573
986 1 0.235195 0.0390594 0.613176
1108 5 0.0198275 0.0512087 0.62972
956 1 0.345402 0.43411 0.621318
123 1 0.237296 0.17144 0.647931
610 1 0.24326 0.194733 0.614617
1094 2 0.26371 0.0597705 0.631731
1072 1 0.434713 0.174698 0.635096
753 1 0.472082 0.0670807 0.634452
209 1 0.416299 0.251283 0.61282
255 1 0.335514 0.209182 0.632192
365 1 0.292961 0.114939 0.627776
111 2 0.396387 0.228416 0.631658
651 2 0.279013 0.177811 0.631584
415 1 0.43681 0.116094 0.607313
1042 2 0.468875 0.127135 0.625554
1103 2 0.463642 0.00594891 0.6403
909 5 0.0536261 0.286118 0.655566
50 5 0.036565 0.437624 0.663885
1085 2 0.111618 0.488794 0.603406
458 1 0.149405 0.253251 0.636043
51 1 0.134062 0.4331 0.65179
343 1 0.247103 0.301743 0.633333
1114 2 0.186779 0.298243 0.626308
1145 1 0.0598297 0.368439 0.638679
870 1 0.158455 0.357261 0.627562
631 1 0.106623 0.444289 0.618975
1069 2 0.115156 0.400404 0.63442
1104 1 0.0149404 0.497989 0.641519
551 1 0.188587 0.275797 0.60605
931 1 0.304174 0.0168758 0.639043
202 5 0.434096 0.341942 0.666056
1150 1 0.445762 0.417506 0.628581
525 2 0.482437 0.38026 0.61505
607 2 0.328076 0.468757 0.603818
1183 5 0.327127 0.309396 0.663384
1000 1 0.37341 0.400269 0.653442
71 2 0.387619 0.439842 0.637001
999 1 0.406794 0.27241 0.646454
31 5 0.338731 0.330776 0.625012
639 5 0.213456 0.482612 0.663504
524 1 0.499248 0.322497 0.623395
370 1 0.101289 0.535556 0.355068
388 1 0.236539 0.731203 0.390587
1136 1 0.168685 0.739932 0.364492
1101 1 0.157316 0.581375 0.382749
763 1 0.0655121 0.762526 0.365359
708 1 0.0998235 0.661562 0.361452
85 1 0.0500061 0.583863 0.381102
839 2 0.108773 0.721173 0.371102
572 2 0.164169 0.526469 0.393355
1144 3 0.101782 0.597157 0.36672
1135 1 0.103636 0.710943 0.392263
429 5 0.234592 0.631805 0.39209
575 1 0.226227 0.50974 0.393179
815 2 0.140868 0.929517 0.397201
734 5 0.338905 0.699559 0.374946
1033 1 0.410438 0.637276 0.341912
1064 1 0.481997 0.587109 0.359575
918 1 0.401295 0.531035 0.348746
715 2 0.418622 0.591114 0.3551
579 1 0.39129 0.605885 0.374711
124 2 0.402031 0.601974 0.395969
9 1 0.493321 0.508947 0.380305
176 5 0.351201 0.712571 0.336025
697 5 0.372326 0.912313 0.359456
84 3 0.23347 0.756216 0.369816
1122 1 0.254613 0.933569 0.361819
1088 2 0.217826 0.886975 0.368922
286 1 0.240738 0.827441 0.369621
797 1 0.198138 0.899589 0.390987
89 1 0.163062 0.889069 0.356871
416 1 0.0619847 0.915411 0.351348
6 5 0.0602137 0.85278 0.378562
519 2 0.119318 0.93934 0.356376
747 1 0.117831 0.95342 0.377802
52 5 0.37376 0.841906 0.386521
758 1 0.456579 0.870786 0.381959
750 5 0.203904 0.772643 0.335701
762 1 0.139772 0.990411 0.344842
679 1 0.301326 0.911586 0.393738
404 1 0.277916 0.737296 0.354468
919 1 0.408945 0.537445 0.397265
422 5 0.0133211 0.698572 0.346407
793 3 0.264538 0.99764 0.370565
1062 5 0.488148 0.790128 0.396816
187 1 0.00169005 0.955973 0.377854
1007 1 0.174396 0.61344 0.483562
12 5 0.0863524 0.714532 0.485939
1157 1 0.0896058 0.632051 0.464678
531 1 0.222112 0.734519 0.428756
620 2 0.202293 0.672868 0.430775
135 1 0.187806 0.661312 0.451668
1058 1 0.149895 0.663312 0.41894
670 1 0.153268 0.563028 0.450729
444 1 0.142169 0.528224 0.413714
994 5 0.0549963 0.583792 0.43817
446 1 0.0418209 0.663066 0.415127
1137 2 0.0966795 0.697033 0.413162
1169 2 0.152068 0.617878 0.462574
1112 3 0.203775 0.578387 0.499979
739 5 0.0389926 0.55791 0.411736
1180 5 0.368807 0.74467 0.598905
445 3 0.153745 0.504966 0.435955
718 1 0.254471 0.638793 0.423931
1083 1 0.323516 0.645608 0.476569
213 5 0.368871 0.547183 0.481731
1002 1 0.267128 0.524103 0.466822
1018 2 0.297 0.651367 0.496061
349 1 0.254025 0.698887 0.497037
749 1 0.400013 0.708336 0.468579
554 5 0.458155 0.654124 0.490434
360 1 0.448869 0.921846 0.591191
501 5 0.471257 0.650082 0.433126
499 1 0.422105 0.726559 0.428366
528 1 0.416032 0.611579 0.460853
1049 3 0.448928 0.555781 0.453302
1031 1 0.340626 0.651585 0.442788
789 1 0.307324 0.554557 0.434378
562 1 0.329833 0.742086 0.409018
847 1 0.353051 0.615524 0.40956
911 2 0.31604 0.616604 0.426892
740 2 0.278812 0.507658 0.445608
1038 2 0.369047 0.656586 0.461957
238 1 0.472325 0.55366 0.431755
387 1 0.4251 0.571493 0.504412
361 5 0.00337655 0.603295 0.544501
844 2 0.237775 0.75369 0.487252
11 1 0.174455 0.751599 0.484447
637 1 0.151375 0.982008 0.409738
426 1 0.0659729 0.854554 0.468431
1087 1 0.12792 0.954148 0.479868
167 5 0.154581 0.855018 0.485214
374 1 0.242911 0.90479 0.487217
705 2 0.230909 0.906292 0.444403
603 1 0.236911 0.917712 0.422791
475 5 0.0105925 0.896821 0.42314
823 5 0.16142 0.767772 0.453316
180 5 0.0985931 0.851531 0.436226
35 1 0.0964547 0.747543 0.426119
594 1 0.170043 0.91402 0.44971
988 2 0.12884 0.95721 0.458184
685 2 0.0160004 0.504096 0.523317
892 1 0.0706673 0.953644 0.450043
997 5 0.0315569 0.785664 0.450825
544 1 0.215558 0.588325 0.599184
70 2 0.0122571 0.876632 0.476817
183 2 0.255207 0.888088 0.405053
386 1 0.260113 0.826587 0.410226
731 1 0.350628 0.821205 0.572895
985 5 0.313191 0.513839 0.40316
462 5 0.482884 0.628185 0.52432
1197 2 0.452465 0.749093 0.468387
1156 3 0.259465 0.756089 0.410559
941 1 0.343884 0.955482 0.48172
764 1 0.33754 0.840274 0.469209
881 1 0.266876 0.758691 0.468191
1015 3 0.276274 0.961116 0.478796
294 1 0.433186 0.910423 0.471751
293 1 0.459542 0.766509 0.489232
45 1 0.20601 0.509818 0.495773
874 2 0.402909 0.965796 0.475259
140 1 0.399121 0.819884 0.416815
699 1 0.406316 0.928789 0.409478
958 3 0.398751 0.86062 0.461913
325 1 0.438715 0.803961 0.458547
277 1 0.483776 0.87317 0.42779
898 3 0.44769 0.981093 0.404437
356 2 0.421259 0.878384 0.423046
1034 1 0.384608 0.886963 0.441025
226 1 0.269667 0.949518 0.454624
138 1 0.33435 0.780582 0.440474
513 2 0.298243 0.804643 0.456256
980 5 0.34085 0.97639 0.434025
144 2 0.372164 0.765586 0.424117
942 1 0.251572 0.847027 0.448868
1189 5 0.168298 0.693741 0.522948
549 1 0.0728734 0.674428 0.529431
1147 5 0.0835242 0.609367 0.504122
665 2 0.023918 0.717985 0.528881
657 1 0.176985 0.592497 0.520164
655 5 0.231181 0.657647 0.538107
120 1 0.23214 0.616384 0.567034
910 5 0.123535 0.596805 0.544761
182 1 0.150826 0.551084 0.570778
39 1 0.0611017 0.524016 0.536713
616 1 0.0331407 0.635602 0.574856
506 1 0.137753 0.643675 0.583962
1142 5 0.0484002 0.542224 0.567042
820 2 0.0765662 0.667374 0.586777
751 1 0.169631 0.731418 0.553646
145 1 0.0809402 0.726334 0.576347
1061 2 0.182641 0.598287 0.580497
949 5 0.00503667 0.884735 0.525722
7 1 0.0224497 0.748991 0.509774
886 5 0.254524 0.717985 0.56712
853 5 0.0262787 0.787685 0.410089
334 1 0.101776 0.884017 0.404882
450 2 0.433983 0.927858 0.570111
618 5 0.247383 0.527731 0.52765
307 2 0.365887 0.704217 0.527396
678 1 0.342876 0.666892 0.510578
568 5 0.341958 0.551216 0.518171
168 1 0.26908 0.595745 0.500613
978 2 0.464877 0.522325 0.507256
581 1 0.411627 0.672555 0.53936
902 1 0.409837 0.673261 0.572925
181 1 0.436152 0.572798 0.582987
1170 2 0.436599 0.702765 0.55699
541 5 0.413886 0.585313 0.552454
281 1 0.314546 0.576293 0.547847
79 1 0.318509 0.72419 0.540062
1 1 0.3275 0.607158 0.580451
143 1 0.264048 0.522167 0.57361
1028 3 0.390411 0.622901 0.587901
534 2 0.286263 0.578798 0.567041
268 1 0.462764 0.505371 0.528591
905 1 0.370057 0.944235 0.572046
474 1 0.171159 0.982675 0.510657
862 1 0.0068238 0.987625 0.539146
484 1 0.434682 0.870545 0.55967
490 5 0.105656 0.846013 0.529842
1050 1 0.089474 0.91291 0.510003
952 2 0.436263 0.50708 0.583524
576 2 0.114422 0.965899 0.501343
246 1 0.210468 0.866607 0.519958
702 1 0.0308332 0.762024 0.543717
1116 1 0.228401 0.954108 0.593043
1141 1 0.213928 0.981518 0.544291
262 1 0.163585 0.761918 0.588209
727 3 0.0824089 0.876983 0.567489
860 2 0.0622119 0.989555 0.550031
451 5 0.161634 0.968925 0.568316
405 1 0.0947253 0.907405 0.587732
765 1 0.123142 0.822624 0.565161
399 5 0.191852 0.894315 0.54989
376 1 0.0843383 0.928491 0.551973
482 1 0.0212112 0.844188 0.565988
567 2 0.133991 0.758777 0.568833
221 2 0.293289 0.825117 0.58343
310 5 0.297292 0.926294 0.543199
434 1 0.256335 0.805422 0.49828
234 3 0.362653 0.984234 0.591438
592 1 0.364976 0.844687 0.538053
283 1 0.403831 0.750049 0.517958
1023 1 0.294649 0.871682 0.59835
841 5 0.248321 0.793915 0.540152
816 1 0.250437 0.8397 0.568417
1115 1 0.285638 0.768533 0.592433
1113 1 0.492094 0.805772 0.52261
1011 2 0.256383 0.86819 0.504458
1184 1 0.315636 0.880205 0.512257
495 1 0.399897 0.936688 0.527125
1093 2 0.375464 0.880744 0.519675
41 1 0.275135 0.985894 0.517347
511 1 0.412444 0.848069 0.505919
83 2 0.442805 0.791935 0.508077
368 2 0.391987 0.821952 0.556056
414 1 0.455341 0.975944 0.556909
719 3 0.461823 0.959608 0.534134
1095 1 0.449395 0.780438 0.590247
315 1 0.42118 0.765323 0.554121
170 1 0.0106196 0.987327 0.411452
598 1 0.454347 0.634305 0.401316
252 1 0.00516832 0.935841 0.485573
851 1 0.403042 0.504543 0.454293
877 1 0.437138 0.999323 0.490284
913 5 0.0877029 0.644868 0.664447
68 1 0.218096 0.55997 0.633521
852 2 0.248259 0.694076 0.662155
329 1 0.221437 0.650855 0.649557
950 2 0.182318 0.599528 0.645379
1166 1 0.229536 0.689078 0.682306
627 1 0.0286115 0.56758 0.667477
819 1 0.0708158 0.655403 0.607825
609 2 0.0799808 0.603643 0.621442
704 1 0.165889 0.57659 0.664751
891 1 0.09582 0.551151 0.609683
455 1 0.12899 0.614789 0.634228
955 1 0.0247159 0.595818 0.632633
393 5 0.10182 0.52134 0.676844
521 1 0.191102 0.854916 0.604855
1046 1 0.0054536 0.923554 0.604152
17 2 0.492124 0.747228 0.6015
440 5 0.229002 0.701282 0.600559
99 2 0.492478 0.931487 0.606852
483 1 0.465146 0.560039 0.624393
1008 1 0.414789 0.733181 0.652602
1191 1 0.472048 0.7534 0.622035
1074 2 0.425925 0.561032 0.642396
106 1 0.463692 0.576461 0.658578
119 1 0.386625 0.649944 0.608805
125 1 0.312608 0.695498 0.663939
1125 2 0.256977 0.569639 0.615179
186 2 0.351667 0.735321 0.653038
923 1 0.293578 0.62242 0.61953
733 1 0.294629 0.520938 0.610826
927 1 0.337437 0.708649 0.632807
363 1 0.377342 0.603653 0.640021
129 2 0.349904 0.648017 0.626276
1106 1 0.397696 0.816365 0.632694
710 1 0.229373 0.751531 0.654406
1020 1 0.0337669 0.740177 0.63796
937 3 0.219129 0.905642 0.647627
442 2 0.240024 0.899071 0.606243
1167 2 0.219551 0.796107 0.638255
588 1 0.190852 0.764572 0.621826
653 1 0.244736 0.919278 0.626896
80 1 0.173997 0.843349 0.642993
712 1 0.0997109 0.79501 0.612537
1067 2 0.160561 0.796674 0.605459
502 2 0.00588326 0.857698 0.649461
802 2 0.0405563 0.779362 0.620541
244 3 0.122282 0.894604 0.643766
324 1 0.163631 0.94415 0.65154
1124 2 0.0686979 0.934299 0.605429
1003 1 0.0650964 0.877091 0.656396
60 1 0.0996593 0.912506 0.622797
345 1 0.0131414 0.835793 0.629091
104 5 0.187952 0.775392 0.682164
1014 1 0.401541 0.993628 0.644815
838 1 0.470371 0.963662 0.623395
437 5 0.307824 0.657329 0.695321
908 1 0.340076 0.910846 0.644166
338 1 0.488756 0.808342 0.652476
132 1 0.337631 0.796777 0.659354
867 5 0.389949 0.845951 0.601616
491 2 0.445939 0.779508 0.640788
1123 1 0.353074 0.965293 0.613973
205 5 0.330448 0.869877 0.680486
177 3 0.334255 0.84363 0.641664
217 1 0.276928 0.818728 0.632257
960 1 0.250915 0.877201 0.664954
1110 2 0.347764 0.970848 0.6356
236 1 0.00351637 0.754986 0.605382
459 1 0.0111311 0.701492 0.669686
54 1 0.399107 0.500758 0.641203
1111 1 0.0736034 0.999329 0.604107
285 1 0.702212 0.143671 0.388716
725 1 0.64087 0.0601803 0.368838
464 1 0.676245 0.129366 0.344527
1178 2 0.708585 0.196037 0.376995
1092 2 0.681541 0.0694006 0.35276
810 1 0.743729 0.0698769 0.360798
1016 5 0.580234 0.13604 0.362976
321 1 0.53933 0.0462001 0.372511
934 1 0.515091 0.232077 0.366222
1148 2 0.597196 0.0300639 0.380866
947 2 0.887505 0.290022 0.358128
328 2 0.52408 0.218824 0.345152
688 1 0.690852 0.23334 0.335738
299 1 0.913708 0.346212 0.351081
984 1 0.653785 0.217366 0.367134
121 5 0.580137 0.0682275 0.3197
267 1 0.583007 0.242379 0.341157
903 1 0.67131 0.0294908 0.336588
1175 1 0.583446 0.154707 0.394035
757 1 0.519504 0.156858 0.340506
585 3 0.727252 0.175327 0.340909
16 2 0.643612 0.252455 0.348223
1200 1 0.834982 0.397936 0.370255
1096 1 0.726075 0.245314 0.38963
686 2 0.982389 0.465195 0.380967
1026 1 0.752464 0.194167 0.361703
1073 2 0.803638 0.0697029 0.369408
818 2 0.835186 0.111519 0.331345
330 1 0.889581 0.147305 0.328375
540 5 0.837839 0.175599 0.373666
436 1 0.894077 0.459248 0.343405
288 2 0.930769 0.190463 0.335965
1068 1 0.782771 0.149236 0.330074
990 1 0.839958 0.0880904 0.352039
107 1 0.830394 0.0598617 0.318378
389 1 0.979971 0.214932 0.324653
1163 1 0.810846 0.102712 0.387713
649 1 0.654197 0.489465 0.396114
261 1 0.899951 0.233415 0.347575
428 1 0.622232 0.480314 0.329313
216 1 0.673257 0.499345 0.360982
614 1 0.97477 0.165525 0.349635
1032 1 0.818679 0.0099506 0.374865
799 2 0.753254 0.302961 0.393232
807 5 0.546744 0.415274 0.327871
297 1 0.816819 0.29531 0.397805
555 1 0.765667 0.389309 0.343864
497 5 0.683589 0.382904 0.329351
822 5 0.60894 0.24189 0.397124
940 1 0.598122 0.323623 0.385334
729 1 0.645484 0.314824 0.353637
396 1 0.746579 0.452722 0.38173
254 2 0.683323 0.462365 0.378276
77 1 0.653882 0.407156 0.373583
774 1 0.565646 0.380399 0.357207
1192 2 0.617087 0.357708 0.367514
676 1 0.753058 0.340656 0.375704
341 1 0.941032 0.417206 0.376781
1045 1 0.826366 0.304391 0.355254
477 5 0.845183 0.401233 0.32033
732 2 0.810492 0.443431 0.384462
692 2 0.79083 0.357988 0.359811
745 3 0.89742 0.412469 0.359052
1010 1 0.902405 0.282166 0.379524
21 5 0.945778 0.0738612 0.359509
957 1 0.946384 0.0424581 0.389413
845 1 0.51934 0.0151169 0.336242
195 1 0.84063 0.4998 0.380307
467 2 0.879652 0.273585 0.399996
1019 5 0.545804 0.105626 0.463241
1030 2 0.533963 0.247694 0.48811
146 1 0.578462 0.205624 0.481291
691 1 0.630286 0.122082 0.488901
613 2 0.636775 0.177973 0.478332
179 1 0.688784 0.207745 0.485807
469 5 0.749313 0.042799 0.470027
783 1 0.663817 0.0538165 0.45112
2 1 0.618254 0.120301 0.427279
454 1 0.64827 0.162426 0.457426
401 5 0.747367 0.199519 0.45756
493 5 0.920008 0.12615 0.404216
489 1 0.723957 0.12572 0.436179
864 2 0.663691 0.114395 0.443025
795 5 0.669837 0.189942 0.412731
3 2 0.580928 0.111616 0.409411
30 1 0.517803 0.109698 0.417128
115 1 0.514399 0.243469 0.404955
683 1 0.995979 0.248915 0.457214
1133 1 0.550808 0.245431 0.437483
770 1 0.510447 0.00655035 0.455883
742 2 0.896758 0.309827 0.572734
478 1 0.805288 0.131623 0.472074
682 5 0.958582 0.151492 0.493413
253 5 0.887338 0.0528044 0.468731
622 2 0.852676 0.176896 0.473308
257 3 0.997691 0.000703765 0.493022
116 1 0.869162 0.179679 0.494356
199 5 0.868193 0.0371489 0.40845
687 1 0.513996 0.0748199 0.492502
782 1 0.833949 0.236035 0.467019
582 5 0.936044 0.202349 0.433516
1179 5 0.988794 0.113543 0.449581
522 5 0.797211 0.165598 0.40897
214 1 0.878018 0.209461 0.401909
829 1 0.900063 0.152026 0.46127
95 5 0.816099 0.102053 0.44335
394 1 0.981231 0.0484702 0.478372
840 1 0.599409 0.055706 0.401444
1077 3 0.501141 0.49783 0.422262
218 5 0.596935 0.362222 0.472949
1052 5 0.696281 0.305943 0.483485
1168 5 0.716894 0.445958 0.48719
546 2 0.602469 0.282198 0.442864
721 5 0.623521 0.380483 0.413873
593 3 0.656066 0.488386 0.452823
433 1 0.725707 0.333401 0.443681
312 1 0.651441 0.274353 0.428465
1004 2 0.750096 0.388453 0.453
44 2 0.713411 0.292574 0.427611
57 1 0.633849 0.279878 0.460922
37 1 0.721007 0.328174 0.409198
669 1 0.704912 0.435098 0.45543
767 1 0.595946 0.477705 0.462264
586 1 0.579865 0.342427 0.438042
536 1 0.514229 0.459223 0.440354
863 2 0.533753 0.475745 0.459748
976 5 0.509637 0.371912 0.416367
466 1 0.512182 0.291334 0.474169
693 5 0.785698 0.245396 0.494403
672 1 0.754444 0.243118 0.429131
591 5 0.957493 0.393363 0.412025
1091 1 0.773486 0.378109 0.472736
761 3 0.833203 0.374212 0.484569
476 5 0.914042 0.277476 0.47915
357 2 0.885492 0.484026 0.493195
263 1 0.884834 0.368408 0.470443
1138 1 0.945379 0.455906 0.49436
735 1 0.844073 0.435513 0.494526
636 1 0.886312 0.456834 0.428765
674 1 0.818463 0.424521 0.40471
64 2 0.825602 0.445207 0.424685
131 1 0.911633 0.307629 0.414107
1021 5 0.840438 0.299381 0.442901
1190 5 0.923712 0.36287 0.439129
1035 5 0.926831 0.446468 0.459009
103 1 0.801615 0.401712 0.439927
946 1 0.939341 0.316004 0.556374
1109 1 0.503494 0.142657 0.52247
190 1 0.78932 0.495327 0.428136
517 5 0.737425 0.0682661 0.404827
1100 2 0.820826 0.417928 0.548963
172 1 0.672538 0.496265 0.540627
1158 1 0.915818 0.266989 0.587758
713 1 0.638546 0.0186584 0.496457
291 1 0.889281 0.364479 0.583305
1044 1 0.576607 0.0105562 0.568694
786 2 0.999202 0.46682 0.589965
1121 2 0.565609 0.140117 0.528031
164 1 0.594463 0.0864699 0.520283
58 1 0.694863 0.0910867 0.514717
901 2 0.63991 0.0780299 0.50454
304 1 0.594626 0.196394 0.522497
1041 1 0.569943 0.135809 0.550044
936 1 0.714481 0.0376833 0.592941
1139 1 0.647962 0.102627 0.571434
623 1 0.983094 0.449381 0.569339
626 2 0.606729 0.150948 0.566747
210 5 0.757511 0.0722072 0.54072
339 2 0.697479 0.0939939 0.585338
43 5 0.693818 0.181934 0.529705
369 1 0.643344 0.203119 0.561768
971 1 0.686043 0.236951 0.590345
830 1 0.577795 0.16627 0.585256
350 2 0.557145 0.0269155 0.588804
1195 1 0.506238 0.0682435 0.586924
944 1 0.648568 0.494032 0.598297
736 5 0.823279 0.0507659 0.596978
200 2 0.986523 0.151049 0.54438
1154 5 0.769774 0.126285 0.500907
515 5 0.884789 0.0906546 0.512266
408 1 0.948689 0.13254 0.528225
384 5 0.905604 0.221919 0.520847
224 1 0.804665 0.0359194 0.518448
1198 1 0.809007 0.179754 0.553439
157 1 0.909073 0.0345819 0.583062
1005 1 0.835283 0.0773368 0.56374
332 1 0.961655 0.129963 0.563435
1187 2 0.878248 0.029247 0.564019
809 2 0.981046 0.137785 0.584755
118 2 0.807759 0.135267 0.568621
147 1 0.910585 0.0190692 0.545827
570 1 0.934981 0.163544 0.596761
273 1 0.830144 0.160477 0.587497
228 1 0.746792 0.118567 0.574078
794 1 0.95382 0.0108492 0.511133
677 1 0.987978 0.217005 0.54538
801 1 0.568266 0.479577 0.550169
73 2 0.586206 0.262313 0.524604
152 1 0.625443 0.364745 0.595908
895 1 0.535706 0.401975 0.504066
427 2 0.594349 0.407916 0.511977
509 1 0.592518 0.39551 0.532978
878 1 0.55834 0.279513 0.505366
924 1 0.605495 0.470902 0.508037
235 1 0.643518 0.290609 0.526552
279 1 0.638393 0.368665 0.502337
948 3 0.682156 0.34193 0.520231
431 2 0.687252 0.466448 0.583026
379 2 0.723448 0.465865 0.530414
720 1 0.731709 0.254059 0.556748
890 1 0.731665 0.430411 0.591979
831 2 0.624928 0.364128 0.574308
98 1 0.719101 0.33198 0.579197
203 2 0.679532 0.259468 0.569184
716 1 0.703649 0.403667 0.528201
391 1 0.659457 0.418062 0.570177
351 1 0.630542 0.303218 0.566926
1119 3 0.547482 0.412104 0.549328
1056 1 0.542811 0.268555 0.540381
850 1 0.562368 0.375856 0.567454
1081 5 0.536776 0.270076 0.572179
612 1 0.745568 0.320205 0.51255
880 1 0.510797 0.428458 0.471739
530 3 0.939449 0.475375 0.553882
737 2 0.762281 0.377387 0.58443
430 5 0.801156 0.267624 0.593669
266 1 0.974987 0.466625 0.533595
189 1 0.7774 0.462181 0.541693
529 1 0.82428 0.373188 0.533202
869 3 0.989702 0.286575 0.543883
884 1 0.817003 0.269582 0.53041
843 5 0.917083 0.384279 0.518508
488 1 0.986077 0.301679 0.522122
825 2 0.807882 0.324968 0.519015
133 1 0.841985 0.32505 0.50122
18 1 0.793206 0.398033 0.566832
982 3 0.800629 0.248152 0.551213
1102 1 0.878997 0.442029 0.552182
769 1 0.840208 0.284598 0.565289
250 2 0.533254 0.18646 0.599313
1059 1 0.998791 0.468746 0.401956
300 2 0.570486 0.191832 0.653449
1043 1 0.633189 0.19803 0.657423
788 1 0.732794 0.173482 0.649391
354 2 0.699057 0.198769 0.607304
441 2 0.629728 0.0267007 0.619968
748 1 0.66956 0.215489 0.625737
615 1 0.952381 0.0034058 0.641595
1152 1 0.657075 0.0663061 0.633463
122 5 0.685402 0.0992271 0.662532
656 2 0.687602 0.216898 0.646443
539 1 0.536433 0.143107 0.65817
1025 1 0.526648 0.149934 0.616816
240 1 0.549183 0.247462 0.606243
601 1 0.551728 0.238043 0.641115
448 5 0.748085 0.0858231 0.632579
875 1 0.605798 0.0457256 0.601788
932 1 0.817291 0.0492098 0.657094
194 5 0.916692 0.0843359 0.656659
33 5 0.828372 0.140609 0.650579
383 1 0.965706 0.225701 0.655755
93 1 0.960185 0.238545 0.620651
666 1 0.860484 0.221491 0.612208
975 5 0.919956 0.0627614 0.613668
335 1 0.834115 0.119704 0.620697
292 2 0.821925 0.171114 0.609046
1151 1 0.762408 0.196936 0.610829
1140 2 0.983488 0.202231 0.63693
136 5 0.992666 0.333016 0.614943
162 1 0.970551 0.138821 0.633402
498 1 0.976963 0.420015 0.603245
355 1 0.711864 0.389397 0.650336
223 1 0.642637 0.419015 0.626918
933 2 0.644887 0.356875 0.616012
642 2 0.693444 0.442724 0.638894
527 1 0.704897 0.336824 0.620824
457 2 0.734438 0.332642 0.64104
771 1 0.71147 0.27728 0.649441
1130 2 0.575935 0.434713 0.63063
641 1 0.561712 0.40955 0.64966
463 2 0.549914 0.282145 0.625032
1009 1 0.604888 0.31712 0.626753
193 1 0.543442 0.407155 0.614755
471 1 0.67557 0.494952 0.650366
675 1 0.744467 0.457525 0.625977
600 1 0.561351 0.497702 0.630847
337 5 0.975666 0.410567 0.637186
1182 5 0.902233 0.273446 0.673469
1080 2 0.864201 0.389807 0.60129
972 1 0.844724 0.451505 0.606414
1040 1 0.893878 0.352072 0.65677
963 1 0.83384 0.430282 0.639508
569 1 0.801211 0.333848 0.640465
65 1 0.886826 0.366193 0.620415
1132 2 0.807261 0.468811 0.623696
887 2 0.857023 0.368695 0.640318
507 2 0.920891 0.224433 0.603986
53 1 0.688403 0.136251 0.601457
56 1 0.802883 0.363184 0.600373
239 1 0.647409 0.579974 0.343079
411 2 0.73384 0.629074 0.372178
385 5 0.7632 0.993783 0.323316
876 2 0.629274 0.517364 0.346279