ITEM: TIMESTEP
600
ITEM: NUMBER OF ATOMS
1200
ITEM: BOX BOUNDS pp pp pp
-7.6266250050336382e-02 2.5098596345622489e+01
-7.6266250050336382e-02 2.5098596345622489e+01
-2.5251128845723162e+01 5.0273458941295317e+01
ITEM: ATOMS id type xs ys zs
760 1 0.0582185 0.122484 0.390496
1149 3 0.231233 0.105214 0.349863
419 1 0.221742 0.130112 0.371104
108 1 0.22046 0.0380377 0.355743
456 1 0.481008 0.326798 0.347843
96 1 0.0350194 0.0237311 0.383258
635 5 0.281119 0.224848 0.324532
1076 1 0.174759 0.101743 0.335799
1193 1 0.10462 0.0772983 0.360862
580 5 0.141693 0.188017 0.370989
269 2 0.0271422 0.233114 0.350396
638 5 0.125766 0.170636 0.326305
390 2 0.0831001 0.0680321 0.380937
645 3 0.154848 0.0503708 0.348094
967 1 0.085654 0.211692 0.35138
690 3 0.49602 0.390953 0.353167
26 5 0.145168 0.360208 0.328462
542 1 0.133898 0.0557599 0.393148
935 2 0.446643 0.273477 0.340232
787 1 0.416355 0.236934 0.355398
907 1 0.409878 0.00505232 0.388875
314 1 0.448489 0.181447 0.385804
590 2 0.489667 0.230493 0.382262
577 2 0.111752 0.459448 0.363903
460 1 0.338972 0.47557 0.347616
559 1 0.435946 0.0377945 0.357565
1053 1 0.302762 0.356654 0.344197
973 5 0.370096 0.154616 0.354983
565 5 0.300382 0.413773 0.370888
468 2 0.404363 0.139526 0.393919
1174 1 0.284243 0.137486 0.339002
1037 1 0.379492 0.0998958 0.379163
432 5 0.26595 0.208365 0.379257
196 2 0.388656 0.0393375 0.371819
82 1 0.214093 0.299183 0.336479
346 2 0.254503 0.318538 0.351862
533 1 0.165107 0.265183 0.399882
904 5 0.00459214 0.351918 0.377201
40 5 0.130874 0.296846 0.35211
804 1 0.230631 0.00775288 0.389691
813 1 0.0510311 0.462978 0.368301
403 5 0.140862 0.338769 0.379669
465 1 0.328521 0.0160847 0.367963
1071 1 0.22723 0.338327 0.37011
834 1 0.157898 0.468127 0.382625
418 1 0.0292531 0.295308 0.351895
915 1 0.127718 0.40096 0.357145
703 2 0.399537 0.483946 0.352013
241 1 0.457577 0.287869 0.383161
929 1 0.493018 0.235457 0.332141
373 1 0.395548 0.487406 0.374163
1171 1 0.442205 0.437707 0.347091
409 1 0.475971 0.389823 0.376307
1159 2 0.430208 0.34671 0.382152
412 2 0.351493 0.317717 0.350274
628 1 0.391714 0.303868 0.333631
660 1 0.302273 0.273751 0.357174
151 1 0.382145 0.339438 0.367034
893 5 0.364688 0.254729 0.385504
1173 1 0.0648866 0.305076 0.399857
296 1 0.0702888 0.00142199 0.502272
397 2 0.0351523 0.224282 0.473312
885 5 0.184088 0.201263 0.479367
1185 5 0.0563007 0.0914846 0.498379
88 1 0.026741 0.167065 0.482155
28 1 0.208148 0.109068 0.49057
62 5 0.240893 0.030205 0.445993
953 5 0.080622 0.0130038 0.427632
344 1 0.435419 0.385465 0.599825
1060 5 0.149872 0.200322 0.440481
137 5 0.16383 0.110213 0.44353
377 2 0.0509004 0.151477 0.410415
537 1 0.209005 0.0664185 0.418917
15 5 0.0639286 0.0624692 0.455897
353 1 0.0856725 0.20537 0.409846
1017 1 0.09385 0.228054 0.464527
1024 1 0.0685591 0.115195 0.426931
472 1 0.258427 0.0236541 0.477887
75 1 0.312669 0.10156 0.493582
375 2 0.26208 0.0873759 0.480125
206 1 0.268722 0.223302 0.4937
407 1 0.482146 0.21381 0.494519
985 5 0.325961 0.489785 0.40823
247 5 0.421985 0.130929 0.472397
378 2 0.469807 0.0161489 0.444112
516 1 0.461445 0.082536 0.444453
406 1 0.479487 0.176395 0.429927
91 1 0.431699 0.108589 0.410581
1077 3 0.497884 0.492504 0.420125
920 2 0.476619 0.113544 0.426374
211 5 0.325156 0.0179874 0.405161
858 1 0.268992 0.172534 0.432546
443 2 0.306316 0.131085 0.442581
14 1 0.322895 0.0771143 0.432537
322 5 0.379843 0.229731 0.42772
968 1 0.270228 0.114495 0.460602
290 1 0.353132 0.174204 0.400097
72 1 0.358412 0.163087 0.44912
32 5 0.306243 0.239271 0.462636
364 1 0.00962495 0.370066 0.495576
779 5 0.15733 0.433491 0.466184
871 3 0.014299 0.437442 0.490482
242 1 0.0278942 0.268918 0.489066
754 1 0.0541983 0.454455 0.472654
78 5 0.152073 0.295105 0.480886
34 1 0.25017 0.415878 0.47702
1099 1 0.395141 0.383712 0.567172
663 1 0.114263 0.351818 0.459064
188 5 0.243812 0.333494 0.401615
1079 5 0.229613 0.42724 0.415639
991 5 0.335739 0.119929 0.587575
435 1 0.196677 0.289689 0.451654
392 1 0.0149311 0.423049 0.441944
591 5 0.015364 0.370392 0.417264
827 1 0.116185 0.289105 0.428881
689 2 0.147913 0.323977 0.443341
722 1 0.0992793 0.484016 0.440909
1128 2 0.0453706 0.471228 0.45196
249 2 0.106918 0.265507 0.40888
265 1 0.17869 0.367973 0.430352
741 5 0.101648 0.436703 0.413365
348 5 0.488472 0.339542 0.553643
395 5 0.360427 0.00413467 0.507394
1078 1 0.3717 0.407141 0.469331
564 2 0.379213 0.361627 0.484439
139 5 0.260714 0.319632 0.485997
547 1 0.316928 0.471521 0.498091
561 1 0.360577 0.304184 0.477721
256 2 0.267672 0.473503 0.484476
447 2 0.486848 0.408559 0.490018
4 1 0.442319 0.362901 0.489672
204 1 0.462192 0.462801 0.497865
1059 1 0.0179545 0.472351 0.400716
608 1 0.446802 0.468762 0.406375
812 2 0.40637 0.348491 0.584353
1070 2 0.185536 0.0315216 0.402756
696 5 0.425914 0.252658 0.455382
996 1 0.466823 0.28087 0.42741
208 1 0.214153 0.491037 0.441538
382 5 0.244797 0.255139 0.422305
1039 5 0.273504 0.358496 0.449822
109 1 0.336485 0.310156 0.426005
694 1 0.313886 0.454236 0.44445
494 2 0.366079 0.36266 0.418939
308 1 0.396032 0.396178 0.435026
633 1 0.318944 0.398146 0.410239
410 2 0.37588 0.43788 0.449913
550 1 0.131497 0.113388 0.519127
574 5 0.0583338 0.186768 0.513242
1155 1 0.140843 0.233887 0.505386
520 2 0.192403 0.11391 0.511559
811 1 0.224621 0.0642924 0.52062
643 1 0.220309 0.168146 0.519386
785 1 0.111555 0.0685007 0.583936
857 1 0.211297 0.0526925 0.581174
69 2 0.208911 0.207415 0.596067
114 2 0.24385 0.0108929 0.594328
45 1 0.214243 0.49915 0.49436
1089 1 0.00661578 0.0707187 0.588795
1006 1 0.0517091 0.118532 0.545653
738 3 0.0772616 0.213703 0.589631
647 2 0.16631 0.0979209 0.577811
192 1 0.160937 0.105462 0.555932
632 1 0.0260852 0.171651 0.584073
897 2 0.0560403 0.0321712 0.58483
826 3 0.111549 0.0896958 0.540536
680 1 0.106569 0.0210491 0.541864
548 1 0.183736 0.153972 0.586758
803 5 0.189398 0.188654 0.548148
219 1 0.118995 0.23173 0.570975
23 1 0.352198 0.0773695 0.526639
298 2 0.267794 0.208977 0.514206
101 1 0.321422 0.172649 0.517282
854 2 0.348737 0.118357 0.510296
1118 1 0.280591 0.435521 0.591997
470 2 0.456218 0.175802 0.510162
413 1 0.427804 0.217396 0.524506
684 1 0.482145 0.0150347 0.521982
833 1 0.408652 0.135434 0.504275
930 2 0.495076 0.020815 0.500507
81 1 0.412138 0.0288566 0.588814
961 2 0.447683 0.0828363 0.587175
900 3 0.427294 0.235623 0.589009
945 5 0.476927 0.194607 0.550795
42 1 0.488593 0.201291 0.585779
1057 1 0.314835 0.268049 0.557944
1161 1 0.436201 0.108728 0.568038
1066 5 0.387881 0.151501 0.544951
596 1 0.304588 0.165123 0.559053
1199 2 0.313144 0.217208 0.570931
10 1 0.261254 0.223645 0.583827
220 1 0.306895 0.0134197 0.589658
646 5 0.269444 0.0766279 0.547489
837 5 0.373381 0.0397236 0.556208
438 1 0.371256 0.213762 0.57987
1001 2 0.145434 0.28942 0.516846
92 1 0.0905042 0.320593 0.511656
916 1 0.0444767 0.467381 0.508663
1194 5 0.313613 0.433188 0.561153
342 5 0.138957 0.482504 0.518048
605 1 0.19652 0.320257 0.510343
424 2 0.0294276 0.315045 0.504004
798 5 0.196904 0.415099 0.509753
558 5 0.263138 0.32077 0.587869
317 3 0.227423 0.466942 0.58195
611 1 0.239141 0.338237 0.550509
215 1 0.201923 0.429027 0.565518
367 5 0.063971 0.389259 0.533408
105 2 0.287375 0.303296 0.542563
366 1 0.0535204 0.304712 0.554881
130 5 0.00180943 0.323086 0.584085
759 1 0.147864 0.336149 0.566043
231 2 0.114319 0.284494 0.558479
153 1 0.136274 0.274071 0.538136
786 2 0.00745726 0.464867 0.591763
518 1 0.0642204 0.275444 0.597726
127 1 0.153554 0.39105 0.537242
352 1 0.0735134 0.4729 0.589558
174 2 0.187136 0.375898 0.554767
439 5 0.106695 0.463673 0.557084
100 2 0.333868 0.400131 0.521926
922 5 0.372406 0.260212 0.504492
977 1 0.269788 0.257322 0.52839
535 1 0.278115 0.426793 0.52947
966 1 0.382726 0.439251 0.529441
1013 1 0.347694 0.373531 0.503069
372 1 0.354311 0.325929 0.593898
227 1 0.444339 0.29841 0.578546
851 1 0.406627 0.493982 0.452621
652 5 0.413102 0.287289 0.548903
998 1 0.404464 0.354692 0.401633
784 2 0.431098 0.466282 0.540352
20 1 0.151568 0.0173135 0.456512
706 1 0.415478 0.492781 0.559263
303 1 0.482326 0.427219 0.540499
340 1 0.370531 0.489058 0.589318
1105 1 0.33231 0.341605 0.533696
487 5 0.492083 0.0690116 0.547235
309 5 0.263673 0.129563 0.403368
943 5 0.480155 0.319811 0.516204
1117 5 0.0910904 0.366566 0.591859
1000 1 0.333313 0.41541 0.655002
123 1 0.247825 0.167659 0.646293
610 1 0.237979 0.178291 0.61316
1094 2 0.261108 0.0479506 0.63155
162 1 0.000285598 0.120702 0.630289
50 5 0.11255 0.493655 0.66656
142 1 0.188551 0.140679 0.674433
71 2 0.370524 0.437879 0.640628
1085 2 0.120356 0.48662 0.604342
711 5 0.084199 0.0916713 0.618432
700 1 0.145521 0.148607 0.640115
359 1 0.220846 0.0728545 0.646546
1126 1 0.110675 0.185921 0.609617
47 2 0.116878 0.197675 0.629705
94 1 0.0563759 0.204846 0.637861
230 2 0.198854 0.133224 0.652994
1072 1 0.433009 0.178415 0.637866
753 1 0.472357 0.0773888 0.634698
999 1 0.392368 0.279829 0.642511
31 5 0.328727 0.352357 0.623389
1108 5 0.0337788 0.0130309 0.63762
209 1 0.421855 0.247262 0.611456
607 2 0.323238 0.472968 0.602992
136 5 0.0234443 0.299802 0.622424
255 1 0.333128 0.202932 0.62742
986 1 0.230268 0.0290002 0.614237
202 5 0.32504 0.282032 0.663688
365 1 0.294885 0.102063 0.625502
111 2 0.395533 0.226651 0.630327
651 2 0.28193 0.164535 0.628877
458 1 0.146096 0.255525 0.63422
51 1 0.14523 0.403879 0.651649
343 1 0.236103 0.307859 0.63174
1114 2 0.179764 0.299329 0.621312
1145 1 0.0590176 0.368413 0.639297
1183 5 0.113151 0.30972 0.659835
870 1 0.145673 0.350723 0.620418
415 1 0.429409 0.122417 0.602596
956 1 0.341756 0.443558 0.620383
1103 2 0.470061 0.0148993 0.641048
1042 2 0.48298 0.139969 0.632442
631 1 0.107334 0.446672 0.620785
1069 2 0.114683 0.393327 0.632989
1150 1 0.422659 0.399531 0.635333
639 5 0.241303 0.405838 0.648333
525 2 0.461711 0.390729 0.618677
551 1 0.187731 0.263923 0.602896
1104 1 0.00511989 0.486555 0.654485
54 1 0.39239 0.498514 0.645785
193 1 0.497358 0.444598 0.619873
931 1 0.304197 0.00595211 0.639312
556 1 0.182414 0.479023 0.60069
498 1 0.00139211 0.406373 0.600734
1131 5 0.104357 0.00106741 0.670749
370 1 0.127021 0.516003 0.351162
914 1 0.495021 0.925577 0.394518
388 1 0.238394 0.726234 0.392641
1136 1 0.22043 0.720525 0.357159
510 1 0.00799127 0.620828 0.396367
429 5 0.269004 0.641094 0.383835
739 5 0.131169 0.642831 0.390857
1101 1 0.183382 0.566919 0.379589
763 1 0.109565 0.743579 0.351329
404 1 0.321595 0.765064 0.371086
708 1 0.153466 0.640763 0.353262
734 5 0.416027 0.775194 0.385652
85 1 0.0788869 0.580085 0.377139
839 2 0.161712 0.702148 0.351599
212 2 0.0141852 0.595021 0.376469
1144 3 0.137735 0.574397 0.362756
422 5 0.0306756 0.716578 0.368858
919 1 0.418432 0.563696 0.397286
598 1 0.420977 0.668477 0.394939
1033 1 0.388728 0.640302 0.34146
697 5 0.36405 0.925444 0.370925
1064 1 0.468411 0.610504 0.363477
918 1 0.41713 0.542837 0.34721
758 1 0.43271 0.864147 0.374737
715 2 0.410854 0.600905 0.355546
52 5 0.350393 0.838852 0.389959
176 5 0.410207 0.73772 0.36049
579 1 0.365387 0.604415 0.372413
124 2 0.383593 0.618165 0.393699
668 5 0.292016 0.535927 0.371372
807 5 0.331867 0.545806 0.318758
1122 1 0.24637 0.929243 0.362965
1088 2 0.205398 0.884378 0.368846
286 1 0.227262 0.823322 0.369196
797 1 0.196471 0.893845 0.390994
993 5 0.00564653 0.846051 0.399163
89 1 0.154148 0.889361 0.356019
634 2 0.488418 0.896511 0.375197
84 3 0.251715 0.756505 0.37216
762 1 0.130981 0.985785 0.344704
416 1 0.0559393 0.908013 0.357177
6 5 0.0669843 0.822565 0.369451
519 2 0.111172 0.939045 0.357432
500 5 0.49026 0.963329 0.314948
750 5 0.303991 0.820206 0.347562
747 1 0.123683 0.953708 0.378383
9 1 0.4914 0.518338 0.379163
572 2 0.185396 0.517524 0.393274
917 2 0.436563 0.505214 0.389146
679 1 0.297024 0.918731 0.393987
815 2 0.139418 0.926191 0.397409
1186 1 0.487094 0.941574 0.359672
793 3 0.259768 0.993746 0.369579
232 1 0.0104287 0.631349 0.35869
575 1 0.247886 0.502594 0.396052
1007 1 0.18749 0.600396 0.480148
12 5 0.0857429 0.745191 0.478133
1157 1 0.0989851 0.647261 0.472519
844 2 0.238242 0.74864 0.487635
531 1 0.225741 0.734162 0.428881
718 1 0.24116 0.632552 0.42437
620 2 0.197794 0.675762 0.43232
135 1 0.187876 0.669201 0.453394
640 1 0.0488561 0.996319 0.567364
1058 1 0.140832 0.669804 0.422923
670 1 0.151414 0.580085 0.447815
444 1 0.151816 0.527932 0.411273
445 3 0.155276 0.523986 0.43447
994 5 0.035613 0.56553 0.423349
637 1 0.155472 0.974044 0.410388
446 1 0.037331 0.686071 0.427765
1137 2 0.091634 0.712981 0.420922
1169 2 0.153637 0.624128 0.463912
1083 1 0.333859 0.638078 0.475862
213 5 0.362035 0.545239 0.478961
1002 1 0.278245 0.517593 0.4684
1018 2 0.304503 0.643796 0.494721
349 1 0.260746 0.691722 0.494351
1197 2 0.452571 0.747768 0.468353
749 1 0.39889 0.710202 0.46734
554 5 0.440658 0.666476 0.495612
238 1 0.477713 0.551007 0.431268
501 5 0.465474 0.638157 0.421072
499 1 0.424501 0.718007 0.431043
528 1 0.420524 0.608979 0.458049
1049 3 0.44961 0.549034 0.451912
1031 1 0.334253 0.650138 0.442301
789 1 0.296662 0.553532 0.434912
562 1 0.334438 0.733818 0.41098
479 1 0.455071 0.997907 0.424245
877 1 0.444041 0.993439 0.491147
847 1 0.335013 0.615036 0.408277
911 2 0.302948 0.614168 0.427365
740 2 0.273881 0.504916 0.447424
1038 2 0.373163 0.653996 0.459779
426 1 0.0605333 0.8448 0.474157
1087 1 0.134267 0.946743 0.482022
11 1 0.174793 0.750854 0.486981
167 5 0.147697 0.851773 0.489974
862 1 0.0143145 0.968755 0.535676
374 1 0.250853 0.892813 0.485299
949 5 0.00988938 0.870444 0.521715
705 2 0.235384 0.903022 0.444897
183 2 0.252104 0.886375 0.403667
603 1 0.238523 0.908973 0.423258
475 5 0.0300007 0.905818 0.428575
823 5 0.177391 0.784957 0.454897
180 5 0.0915967 0.85079 0.43899
35 1 0.107627 0.765317 0.431909
594 1 0.173993 0.914097 0.451393
988 2 0.134461 0.957279 0.460898
257 3 0.0041804 0.997136 0.494089
892 1 0.0741717 0.948018 0.451857
997 5 0.0301538 0.764501 0.450309
334 1 0.101922 0.878965 0.403841
941 1 0.350143 0.959729 0.480324
764 1 0.344346 0.826515 0.47112
881 1 0.263503 0.759305 0.467758
1015 3 0.278512 0.957785 0.480585
434 1 0.258529 0.797907 0.499857
294 1 0.437501 0.898881 0.47528
293 1 0.456337 0.76875 0.489093
952 2 0.422016 0.510491 0.579561
874 2 0.412899 0.958398 0.47646
173 1 0.00506037 0.523398 0.4527
140 1 0.40164 0.81052 0.417213
699 1 0.401521 0.913863 0.41146
958 3 0.402426 0.853249 0.463006
325 1 0.441877 0.80138 0.457133
277 1 0.482958 0.871471 0.429286
361 5 0.00634027 0.604134 0.546332
898 3 0.441749 0.964225 0.404338
356 2 0.41883 0.868506 0.42582
1034 1 0.38549 0.884342 0.44368
226 1 0.274343 0.944983 0.454648
138 1 0.335416 0.777174 0.441229
1156 3 0.268311 0.754288 0.41169
513 2 0.300913 0.803277 0.457612
980 5 0.34651 0.977868 0.436791
86 1 0.428853 0.987263 0.457531
144 2 0.37595 0.75649 0.425466
942 1 0.25737 0.844841 0.449826
1189 5 0.143396 0.668506 0.501559
549 1 0.0792854 0.67645 0.526879
1147 5 0.0639651 0.611825 0.503531
665 2 0.0309127 0.717424 0.529245
657 1 0.179982 0.587081 0.517381
1112 3 0.213204 0.568747 0.498625
618 5 0.244213 0.514985 0.5309
655 5 0.223346 0.662209 0.536416
120 1 0.224114 0.610987 0.564976
910 5 0.132523 0.611315 0.541705
182 1 0.155098 0.535556 0.573045
39 1 0.0594434 0.531106 0.535901
616 1 0.0195076 0.629468 0.579955
506 1 0.126815 0.628198 0.581114
1142 5 0.0535883 0.542526 0.568974
820 2 0.0731425 0.656914 0.588013
751 1 0.159843 0.714862 0.556746
145 1 0.0753583 0.717366 0.578994
1061 2 0.178326 0.591971 0.578639
307 2 0.363965 0.701937 0.525693
678 1 0.348693 0.660211 0.509971
568 5 0.348063 0.549295 0.517832
168 1 0.277524 0.58836 0.500439
386 1 0.262746 0.823916 0.406379
978 2 0.465099 0.52188 0.507019
283 1 0.401363 0.747946 0.517226
387 1 0.426861 0.5677 0.499807
581 1 0.410433 0.673847 0.538779
902 1 0.411013 0.680691 0.572501
181 1 0.422378 0.575311 0.578842
1170 2 0.440203 0.705065 0.5549
541 5 0.403916 0.584704 0.54874
281 1 0.303906 0.577506 0.54468
79 1 0.312684 0.717404 0.537444
1 1 0.321009 0.605889 0.577163
143 1 0.264674 0.519651 0.5714
1028 3 0.383571 0.630298 0.585548
534 2 0.2801 0.577503 0.564139
886 5 0.267755 0.70888 0.565122
490 5 0.12887 0.836367 0.530071
1050 1 0.0916365 0.904032 0.511214
474 1 0.169926 0.979275 0.51269
7 1 0.022822 0.750552 0.51074
576 2 0.117307 0.957479 0.502509
545 2 0.226289 0.999702 0.520725
246 1 0.20726 0.870838 0.51728
702 1 0.0385008 0.760412 0.545449
841 5 0.234521 0.783707 0.536212
1116 1 0.217539 0.952503 0.591527
1141 1 0.23683 0.982258 0.540745
268 1 0.455353 0.516557 0.528651
262 1 0.155291 0.759234 0.590094
727 3 0.0843963 0.872884 0.56508
860 2 0.066685 0.974047 0.54794
451 5 0.170167 0.978624 0.563588
405 1 0.0920264 0.901006 0.586505
765 1 0.120819 0.811596 0.563432
399 5 0.202432 0.89567 0.548077
376 1 0.103783 0.923373 0.551209
482 1 0.0205423 0.857614 0.559252
252 1 0.000458852 0.931357 0.488121
567 2 0.126136 0.750678 0.570429
1011 2 0.256823 0.861533 0.504327
1184 1 0.311112 0.877476 0.51481
495 1 0.39587 0.938672 0.528229
1093 2 0.371734 0.881249 0.521921
41 1 0.272564 0.975691 0.508241
1113 1 0.492296 0.807164 0.521282
511 1 0.409385 0.84862 0.508789
83 2 0.440446 0.79204 0.508474
368 2 0.397289 0.822943 0.558592
414 1 0.458579 0.975873 0.55771
719 3 0.457517 0.962401 0.533951
1095 1 0.461174 0.777869 0.590697
315 1 0.426184 0.767416 0.553821
484 1 0.43942 0.868825 0.563853
450 2 0.439224 0.930264 0.571228
360 1 0.462515 0.930025 0.591378
731 1 0.349696 0.818496 0.573435
905 1 0.374974 0.939346 0.574348
1115 1 0.27998 0.764096 0.592642
310 5 0.296486 0.914138 0.550158
816 1 0.249187 0.829328 0.565426
221 2 0.289263 0.817598 0.581765
592 1 0.370418 0.845234 0.540363
1023 1 0.284924 0.869226 0.594926
234 3 0.364947 0.980245 0.592902
70 2 0.00509991 0.874203 0.479187
544 1 0.214909 0.588617 0.596901
685 2 0.0148743 0.506666 0.522736
853 5 0.169211 0.794008 0.405567
1180 5 0.370189 0.751178 0.598591
398 5 0.00558534 0.631973 0.456051
170 1 0.00394777 0.978528 0.413681
1135 1 0.0865859 0.725587 0.40008
289 1 0.499098 0.908059 0.527645
861 1 0.475467 0.500686 0.590794
913 5 0.0580196 0.663579 0.668847
68 1 0.21654 0.555374 0.631971
852 2 0.246541 0.697731 0.664515
440 5 0.21679 0.688573 0.602734
329 1 0.22961 0.6484 0.651519
950 2 0.190713 0.599746 0.646738
710 1 0.232942 0.753092 0.654176
1123 1 0.370809 0.964857 0.615191
1166 1 0.219018 0.685816 0.682995
627 1 0.0407761 0.565701 0.674064
521 1 0.183295 0.850528 0.604905
38 3 0.496418 0.516202 0.612256
205 5 0.27085 0.978476 0.678384
819 1 0.0682822 0.646835 0.610374
1020 1 0.0231833 0.749954 0.641137
609 2 0.0898411 0.598207 0.623843
704 1 0.178899 0.570944 0.665829
891 1 0.10755 0.550499 0.610008
455 1 0.136477 0.619097 0.635819
955 1 0.0462223 0.575311 0.638879
437 5 0.252798 0.595664 0.685027
483 1 0.457253 0.553632 0.625046
1008 1 0.42111 0.737032 0.653015
104 5 0.273118 0.801543 0.687243
177 3 0.336835 0.841354 0.639098
1191 1 0.477661 0.744725 0.622901
1074 2 0.417818 0.558232 0.642301
106 1 0.454669 0.576895 0.658488
393 5 0.0951485 0.567134 0.699619
119 1 0.373037 0.655171 0.606303
217 1 0.275691 0.822637 0.631315
125 1 0.312649 0.699578 0.668191
1125 2 0.248602 0.570747 0.613949
186 2 0.355908 0.729402 0.65386
923 1 0.283349 0.622106 0.618895
733 1 0.292584 0.526784 0.609062
927 1 0.334392 0.702658 0.635388
363 1 0.372808 0.604454 0.637214
129 2 0.341788 0.646654 0.624421
906 2 0.0122327 0.550194 0.655502
960 1 0.254588 0.896716 0.661967
937 3 0.223475 0.911291 0.642421
442 2 0.228632 0.896246 0.603241
1167 2 0.218594 0.797079 0.63847
588 1 0.187233 0.766038 0.622846
653 1 0.243219 0.923236 0.622298
1110 2 0.357151 0.968342 0.636836
80 1 0.1786 0.849417 0.641636
712 1 0.0885056 0.791447 0.615775
1067 2 0.150787 0.793718 0.60782
502 2 0.00312838 0.872032 0.649001
802 2 0.0288609 0.783116 0.622981
244 3 0.12612 0.894827 0.642
324 1 0.165879 0.946785 0.648113
1124 2 0.0636893 0.927919 0.603489
1003 1 0.0645744 0.885227 0.652673
1111 1 0.0680896 0.993603 0.602125
1014 1 0.408362 0.999636 0.646068
60 1 0.0936988 0.909773 0.62194
1106 1 0.394744 0.80967 0.629845
867 5 0.39196 0.848927 0.60245
338 1 0.483902 0.820774 0.647883
838 1 0.486229 0.975468 0.623928
491 2 0.446935 0.777162 0.638293
132 1 0.3388 0.791615 0.657665
908 1 0.352201 0.907923 0.642447
285 1 0.722247 0.164992 0.388492
725 1 0.637518 0.0669925 0.367052
464 1 0.698354 0.127533 0.345187
676 1 0.752686 0.364108 0.376017
1178 2 0.731305 0.211595 0.375144
1026 1 0.768895 0.202925 0.358693
1092 2 0.692147 0.0703739 0.354465
810 1 0.743091 0.0615673 0.367747
692 2 0.786224 0.382927 0.358328
1016 5 0.550423 0.127239 0.372426
321 1 0.540036 0.0302816 0.375074
934 1 0.526226 0.225191 0.364856
1148 2 0.603299 0.0225453 0.378063
757 1 0.541689 0.143992 0.341789
555 1 0.760716 0.412399 0.341535
328 2 0.541227 0.207267 0.343626
497 5 0.675448 0.434884 0.326816
614 1 0.980878 0.20841 0.364935
1073 2 0.804117 0.0546288 0.37349
745 3 0.906968 0.415749 0.360977
818 2 0.85445 0.111612 0.338047
1010 1 0.881614 0.270646 0.378038
330 1 0.905465 0.147597 0.34629
540 5 0.832265 0.190473 0.3884
957 1 0.931412 0.0140077 0.391235
992 5 0.979977 0.0750208 0.341437
288 2 0.937159 0.203701 0.346402
1068 1 0.804931 0.145433 0.330864
990 1 0.836174 0.0710714 0.354603
1163 1 0.823655 0.10177 0.386815
107 1 0.877966 0.0707333 0.323601
585 3 0.745937 0.173989 0.339085
940 1 0.594897 0.328847 0.379662
688 1 0.699788 0.237989 0.332647
729 1 0.650565 0.322406 0.350542
16 2 0.65751 0.261449 0.346979
396 1 0.743137 0.472776 0.376304
254 2 0.678264 0.467326 0.374458
845 1 0.544218 0.0100671 0.338685
77 1 0.65525 0.409368 0.370111
1096 1 0.757558 0.260047 0.38701
984 1 0.673679 0.229755 0.366631
121 5 0.595117 0.0777513 0.326145
389 1 0.987785 0.212571 0.333672
267 1 0.598077 0.237681 0.340682
774 1 0.564982 0.390726 0.352068
1192 2 0.612563 0.362914 0.362532
822 5 0.609803 0.233131 0.38875
799 2 0.761646 0.323173 0.392191
436 1 0.922087 0.446075 0.341718
299 1 0.918377 0.345925 0.358034
1200 1 0.836317 0.42195 0.36736
261 1 0.89522 0.250063 0.345407
947 2 0.874838 0.298003 0.358411
467 2 0.877829 0.290167 0.398966
732 2 0.807573 0.465776 0.381074
341 1 0.946557 0.439565 0.379827
493 5 0.930095 0.109261 0.397317
1045 1 0.818509 0.326572 0.354789
1146 5 0.968119 0.22826 0.393241
649 1 0.653603 0.484567 0.394588
903 1 0.694996 0.0182822 0.341193
477 5 0.985439 0.36738 0.332638
624 3 0.502916 0.00889295 0.356641
517 5 0.704055 0.0793282 0.394616
297 1 0.824518 0.324676 0.398797
686 2 0.99733 0.477293 0.380565
840 1 0.610972 0.0416873 0.398927
1175 1 0.594869 0.141921 0.399524
1019 5 0.547845 0.0930638 0.463528
1030 2 0.533213 0.245284 0.484689
146 1 0.574829 0.19865 0.477662
691 1 0.629496 0.119914 0.49011
713 1 0.647372 0.0206063 0.501846
613 2 0.636296 0.176599 0.478783
179 1 0.680794 0.211979 0.488283
469 5 0.740108 0.0380039 0.481363
783 1 0.684473 0.0576903 0.455303
2 1 0.633233 0.0967857 0.428474
454 1 0.656906 0.156531 0.45889
401 5 0.735991 0.211743 0.456244
128 5 0.60974 0.0104535 0.467504
489 1 0.727737 0.129499 0.433405
864 2 0.675044 0.111965 0.44459
795 5 0.681311 0.181567 0.413868
869 3 0.995794 0.283791 0.544086
3 2 0.592746 0.0901183 0.411731
30 1 0.53175 0.0861765 0.419358
693 5 0.772402 0.236142 0.495817
478 1 0.802265 0.11707 0.47565
682 5 0.948208 0.126949 0.495629
253 5 0.89954 0.0502072 0.468303
622 2 0.846989 0.165062 0.476184
394 1 0.995872 0.0411413 0.476658
116 1 0.863245 0.17278 0.496968
115 1 0.519222 0.231289 0.402864
199 5 0.84299 0.0222345 0.408435
683 1 0.990983 0.237772 0.458033
782 1 0.822259 0.220937 0.469309
664 1 0.647973 0.487601 0.42965
582 5 0.923905 0.185331 0.437852
1179 5 0.980065 0.131391 0.455183
522 5 0.813441 0.182056 0.427608
214 1 0.87639 0.236274 0.410389
829 1 0.895326 0.145788 0.464062
1054 5 0.994342 0.344398 0.463176
95 5 0.788113 0.0612482 0.44901
801 1 0.563303 0.496888 0.548754
880 1 0.506092 0.424636 0.470602
466 1 0.507717 0.286309 0.470835
218 5 0.592288 0.373032 0.467919
1052 5 0.703615 0.30749 0.482145
1168 5 0.723066 0.432282 0.488763
546 2 0.608888 0.28233 0.441615
721 5 0.630997 0.388187 0.41036
593 3 0.657667 0.482888 0.452969
433 1 0.720283 0.346805 0.443475
312 1 0.66134 0.271172 0.42913
1004 2 0.751727 0.396885 0.451632
44 2 0.717328 0.301299 0.42853
57 1 0.629646 0.280404 0.461998
37 1 0.723945 0.330474 0.409682
669 1 0.710044 0.442367 0.457652
767 1 0.595632 0.466014 0.460682
586 1 0.591146 0.34173 0.436125
536 1 0.51324 0.452883 0.438115
1133 1 0.559454 0.24424 0.436811
863 2 0.532547 0.468921 0.457724
1091 1 0.779972 0.371182 0.468872
761 3 0.840775 0.373037 0.480617
476 5 0.915019 0.26249 0.47792
357 2 0.885614 0.480159 0.494916
263 1 0.889862 0.347102 0.467104
1138 1 0.947116 0.462602 0.489494
735 1 0.847674 0.442954 0.48286
636 1 0.873613 0.480275 0.430045
674 1 0.813459 0.446993 0.401726
64 2 0.813482 0.464179 0.423317
687 1 0.500791 0.0796435 0.492315
131 1 0.929513 0.323053 0.404911
1021 5 0.848409 0.300515 0.445888
1190 5 0.942366 0.419541 0.411076
1035 5 0.920526 0.427562 0.450636
103 1 0.790347 0.419775 0.43655
672 1 0.76493 0.259421 0.430155
1121 2 0.5675 0.141795 0.527786
1109 1 0.506423 0.149145 0.521257
164 1 0.596029 0.0871294 0.521447
73 2 0.591538 0.259232 0.520911
58 1 0.696137 0.111176 0.515673
901 2 0.644651 0.0831693 0.506828
304 1 0.600442 0.19432 0.520888
1041 1 0.564667 0.144579 0.549478
936 1 0.72007 0.046824 0.587264
1139 1 0.645355 0.104797 0.567602
53 1 0.694546 0.149283 0.593576
626 2 0.608261 0.156259 0.565362
210 5 0.731729 0.0593142 0.540169
339 2 0.698763 0.101733 0.578615
43 5 0.701468 0.197679 0.531548
369 1 0.641727 0.207694 0.558468
971 1 0.681559 0.253012 0.588604
976 5 0.532822 0.341104 0.407177
830 1 0.58424 0.170744 0.584861
350 2 0.564795 0.0295373 0.588563
250 2 0.537799 0.193013 0.598259
1195 1 0.511777 0.0640454 0.588864
604 5 0.986516 0.258584 0.425574
1154 5 0.7839 0.114723 0.506945
515 5 0.880794 0.0937582 0.525039
408 1 0.964584 0.140689 0.526437
384 5 0.889622 0.208833 0.526314
224 1 0.809915 0.0336009 0.520439
794 1 0.955748 0.009016 0.511584
1198 1 0.814736 0.185952 0.549975
157 1 0.901562 0.0457528 0.579643
746 1 0.989816 0.166901 0.41328
1005 1 0.843151 0.0841969 0.555404
332 1 0.959801 0.128503 0.561669
1187 2 0.878396 0.0314067 0.56038
809 2 0.97917 0.127013 0.582338
152 1 0.611294 0.36648 0.595606
118 2 0.808541 0.134234 0.562878
147 1 0.920097 0.011895 0.545413
570 1 0.935128 0.149549 0.59636
200 2 0.994687 0.149389 0.544986
273 1 0.824754 0.14926 0.583048
228 1 0.744498 0.121091 0.564067
895 1 0.542468 0.395029 0.500058
427 2 0.598802 0.412599 0.50892
736 5 0.81753 0.0517355 0.598221
509 1 0.587393 0.404039 0.529865
878 1 0.563433 0.274257 0.50167
924 1 0.603544 0.477002 0.505998
612 1 0.749439 0.329804 0.51227
235 1 0.644037 0.294087 0.524694
279 1 0.64973 0.378128 0.502986
899 1 0.728785 0.491457 0.512589
948 3 0.686235 0.345793 0.520655
431 2 0.683174 0.479573 0.584563
379 2 0.719353 0.465455 0.532295
720 1 0.739703 0.268009 0.558677
890 1 0.732045 0.442174 0.592134
831 2 0.615792 0.382139 0.574246
98 1 0.737181 0.333179 0.586162
203 2 0.700036 0.293711 0.572933
716 1 0.70791 0.402535 0.533123
391 1 0.648538 0.438813 0.572288
351 1 0.650944 0.333088 0.566819
172 1 0.668323 0.495037 0.540916
557 2 0.506984 0.233437 0.423922
1119 3 0.546786 0.42879 0.546918
1056 1 0.543428 0.271474 0.534981
850 1 0.558416 0.392345 0.56611
1081 5 0.567698 0.271551 0.568214
336 1 0.872666 0.474459 0.515709
884 1 0.822148 0.281489 0.530686
843 5 0.919761 0.390993 0.523937
488 1 0.996256 0.296945 0.521766
825 2 0.81001 0.334415 0.5192
133 1 0.846423 0.34223 0.501652
18 1 0.792488 0.397613 0.56665
982 3 0.805634 0.253339 0.550806
1102 1 0.87928 0.443575 0.553999
769 1 0.85015 0.2791 0.566119
291 1 0.900294 0.350815 0.586677
1158 1 0.93794 0.255385 0.584899
623 1 0.981681 0.46599 0.572269
1100 2 0.819817 0.426067 0.548821
946 1 0.94247 0.311309 0.554948
770 1 0.530666 0.00314181 0.450344
742 2 0.906985 0.302527 0.57248
266 1 0.976517 0.471774 0.535451
529 1 0.818869 0.384582 0.532476
530 3 0.935664 0.481032 0.553861
737 2 0.769941 0.390707 0.586608
189 1 0.776451 0.473607 0.543749
1044 1 0.584265 0.0132214 0.569214
102 5 0.502285 0.358573 0.44318
677 1 0.99923 0.215475 0.546775
300 2 0.55196 0.21115 0.650087
1043 1 0.614227 0.215198 0.652906
788 1 0.712324 0.182373 0.653586
354 2 0.697249 0.208031 0.602873
441 2 0.639771 0.0280278 0.618207
748 1 0.667786 0.210395 0.622099
630 3 0.807825 0.00807088 0.642285
1152 1 0.678774 0.0663399 0.628977
122 5 0.635721 0.103905 0.657459
46 5 0.746423 0.0228589 0.681842
656 2 0.674924 0.222858 0.643261
355 1 0.704726 0.389362 0.655149
539 1 0.526199 0.152868 0.649317
1025 1 0.522329 0.1583 0.615769
240 1 0.550753 0.252485 0.606583
601 1 0.524656 0.254851 0.639337
56 1 0.816298 0.388462 0.601197
430 5 0.813755 0.296245 0.605712
932 1 0.813732 0.0589456 0.65737
194 5 0.884129 0.0210426 0.700455
1182 5 0.885421 0.233852 0.666084
33 5 0.894402 0.114076 0.645451
383 1 0.957123 0.185293 0.653108
93 1 0.966242 0.220427 0.619979
481 1 0.587487 0.0147051 0.630703
666 1 0.866772 0.219363 0.606058
615 1 0.923405 0.0250694 0.639334
975 5 0.909259 0.0688467 0.610589
335 1 0.826084 0.128528 0.617561
292 2 0.819348 0.174463 0.60316
1151 1 0.763987 0.212415 0.60575
448 5 0.764429 0.125007 0.638843
223 1 0.600496 0.418616 0.624359
933 2 0.631424 0.365182 0.616749
642 2 0.715599 0.448108 0.66106
527 1 0.692878 0.365408 0.622904
1140 2 0.99543 0.183507 0.636084
457 2 0.72395 0.344606 0.64131
771 1 0.696999 0.285525 0.64551
972 1 0.897975 0.447845 0.605084
1130 2 0.552615 0.454328 0.631117
641 1 0.552274 0.455881 0.652292
463 2 0.542324 0.29373 0.6235
1009 1 0.603029 0.316202 0.627225
507 2 0.931332 0.212838 0.6014
524 1 0.506951 0.343995 0.621673
875 1 0.613878 0.0531769 0.600388
963 1 0.856948 0.428196 0.64313
1080 2 0.883262 0.386017 0.604353
65 1 0.886965 0.35053 0.622745
1132 2 0.833498 0.477879 0.652874
887 2 0.850446 0.362126 0.640127
675 1 0.778112 0.457239 0.660871
909 5 0.990412 0.394775 0.662741
569 1 0.786343 0.350774 0.638329
1040 1 0.869824 0.334247 0.658557
1086 1 0.518857 0.00630421 0.655302
337 5 0.967086 0.442119 0.62787
835 1 0.97562 0.980882 0.347858
239 1 0.646707 0.602327 0.344763