ITEM: TIMESTEP
1000
ITEM: NUMBER OF ATOMS
1200
ITEM: BOX BOUNDS pp pp pp
-7.6266250050336382e-02 2.5098596345622489e+01
-7.6266250050336382e-02 2.5098596345622489e+01
-2.5251128845723162e+01 5.0273458941295317e+01
ITEM: ATOMS id type xs ys zs
760 1 0.0822909 0.135043 0.394013
419 1 0.247851 0.153913 0.363152
108 1 0.228923 0.0449767 0.358813
96 1 0.042973 0.0477554 0.384494
635 5 0.232214 0.201304 0.328939
1076 1 0.189863 0.0994198 0.334175
1193 1 0.112557 0.0920608 0.36176
580 5 0.155565 0.189762 0.359548
269 2 0.0238743 0.240516 0.341643
638 5 0.0962282 0.119416 0.329873
390 2 0.0973024 0.0823281 0.382899
645 3 0.16467 0.0573463 0.351177
967 1 0.0771893 0.210276 0.343432
542 1 0.153989 0.0635204 0.391561
804 1 0.245967 0.00764816 0.392005
1149 3 0.256022 0.103559 0.34798
787 1 0.42354 0.242781 0.356541
314 1 0.446485 0.187847 0.38821
590 2 0.487622 0.237231 0.385444
559 1 0.437487 0.0528249 0.356917
973 5 0.420696 0.135814 0.338772
468 2 0.395143 0.152699 0.395279
1174 1 0.315223 0.116144 0.338377
1037 1 0.377004 0.108309 0.380645
432 5 0.348319 0.185729 0.356249
196 2 0.390513 0.0513533 0.371373
500 5 0.465874 0.0393472 0.311052
465 1 0.333202 0.0207366 0.367412
907 1 0.41378 0.0154085 0.388274
624 3 0.496316 0.019554 0.354518
309 5 0.253361 0.152412 0.395622
26 5 0.210426 0.406216 0.333276
577 2 0.104454 0.475981 0.363366
82 1 0.212792 0.289584 0.34141
1173 1 0.0672493 0.320349 0.394566
40 5 0.12458 0.328279 0.343072
813 1 0.0426668 0.470024 0.369443
403 5 0.146888 0.366773 0.380701
1071 1 0.236282 0.353253 0.368994
834 1 0.137281 0.485635 0.381224
418 1 0.0218228 0.30409 0.341817
915 1 0.128177 0.423576 0.353286
904 5 0.0134769 0.356045 0.368735
456 1 0.478328 0.341138 0.351238
917 2 0.434345 0.488043 0.390601
935 2 0.454965 0.285065 0.343943
893 5 0.349229 0.274535 0.388104
460 1 0.353667 0.45753 0.342882
1053 1 0.299525 0.35983 0.341348
565 5 0.286286 0.429644 0.380195
346 2 0.257406 0.318672 0.352163
703 2 0.402454 0.478534 0.353426
241 1 0.455605 0.293408 0.385578
373 1 0.393236 0.47035 0.374716
1171 1 0.45843 0.448357 0.348369
409 1 0.473656 0.396177 0.380449
1159 2 0.428362 0.350803 0.382867
412 2 0.35216 0.327897 0.347613
628 1 0.396607 0.31134 0.333602
660 1 0.309693 0.279771 0.356027
151 1 0.382148 0.346831 0.366397
807 5 0.414253 0.438704 0.314624
397 2 0.0324277 0.224093 0.475908
885 5 0.168789 0.205962 0.480346
1185 5 0.0986237 0.0862541 0.491523
88 1 0.0450699 0.162926 0.481576
28 1 0.206023 0.113901 0.493664
62 5 0.238269 0.0334419 0.447857
953 5 0.0957312 0.0294854 0.428283
1060 5 0.145078 0.223057 0.440797
137 5 0.187152 0.113761 0.444297
377 2 0.0644023 0.160496 0.413133
537 1 0.216851 0.0648432 0.419885
15 5 0.0742201 0.0900042 0.457765
353 1 0.0811679 0.224932 0.410451
1024 1 0.0983307 0.133229 0.428859
1070 2 0.197446 0.0308444 0.403833
20 1 0.142699 0.0226553 0.456397
746 1 0.00192235 0.159864 0.416993
394 1 0.00426685 0.0392618 0.474001
472 1 0.252617 0.0264737 0.480987
75 1 0.311427 0.103598 0.496249
375 2 0.258384 0.0899531 0.483439
206 1 0.261345 0.229677 0.493599
407 1 0.481156 0.214506 0.496845
247 5 0.401798 0.101061 0.475194
378 2 0.453663 0.0282242 0.446788
516 1 0.45463 0.0945227 0.446889
406 1 0.47126 0.187011 0.43317
91 1 0.416691 0.122167 0.413573
920 2 0.464292 0.124286 0.428333
211 5 0.332504 0.0622532 0.408409
858 1 0.268579 0.177805 0.43543
443 2 0.30448 0.13881 0.447521
14 1 0.323008 0.0833625 0.438785
322 5 0.361153 0.225964 0.427908
968 1 0.26461 0.119112 0.464051
72 1 0.350526 0.169653 0.457983
32 5 0.268528 0.242437 0.462409
922 5 0.371121 0.229228 0.489985
479 1 0.449585 0.0140799 0.426261
877 1 0.43843 0.0023393 0.491423
557 2 0.494692 0.243489 0.426316
86 1 0.406406 0.00352911 0.459752
290 1 0.346978 0.189819 0.400493
1017 1 0.0873653 0.250232 0.468283
1054 5 0.0288191 0.346519 0.463267
364 1 0.00811224 0.367736 0.497446
779 5 0.142331 0.444073 0.474182
871 3 0.00584141 0.437361 0.492198
242 1 0.0116282 0.261716 0.492147
754 1 0.0307853 0.444841 0.470707
78 5 0.162828 0.300386 0.477633
34 1 0.246242 0.424098 0.47824
663 1 0.123743 0.370668 0.458186
1079 5 0.228126 0.444635 0.412574
435 1 0.197578 0.311339 0.446687
392 1 0.0140153 0.427627 0.436733
591 5 0.0117812 0.367215 0.413587
827 1 0.0996426 0.316386 0.427354
689 2 0.146291 0.348037 0.44041
722 1 0.0987891 0.485313 0.444416
1128 2 0.0395174 0.469338 0.450861
249 2 0.10353 0.286083 0.407938
265 1 0.169239 0.389957 0.426712
741 5 0.0938159 0.446846 0.412088
188 5 0.242739 0.338644 0.403884
382 5 0.238882 0.259325 0.419388
533 1 0.164765 0.284379 0.402474
998 1 0.393489 0.361461 0.400442
102 5 0.480338 0.355106 0.448684
1078 1 0.367946 0.412782 0.470517
564 2 0.373135 0.368603 0.485812
139 5 0.266561 0.321678 0.488386
547 1 0.318193 0.48087 0.498411
561 1 0.357025 0.312547 0.476615
256 2 0.263226 0.479247 0.48748
447 2 0.485653 0.406089 0.491956
4 1 0.435457 0.366165 0.492514
204 1 0.45918 0.462373 0.498025
608 1 0.444855 0.460841 0.409775
696 5 0.414665 0.25313 0.457131
996 1 0.446787 0.287105 0.426816
1039 5 0.250237 0.382119 0.449983
109 1 0.327817 0.313543 0.42333
694 1 0.309579 0.457486 0.445486
494 2 0.358303 0.368156 0.418322
308 1 0.385465 0.393386 0.436075
633 1 0.312035 0.40853 0.411131
410 2 0.370323 0.437396 0.450341
985 5 0.329687 0.499115 0.411446
851 1 0.405051 0.491578 0.452512
1077 3 0.493098 0.496233 0.422085
296 1 0.0691656 0.000143223 0.50405
550 1 0.127749 0.117403 0.520332
574 5 0.0458746 0.177143 0.512566
1155 1 0.12693 0.225916 0.507117
520 2 0.189242 0.116923 0.514877
811 1 0.216694 0.0646619 0.52351
643 1 0.220917 0.169744 0.521013
785 1 0.112361 0.0716567 0.582465
857 1 0.212442 0.0586173 0.581982
69 2 0.209301 0.20932 0.599921
114 2 0.244007 0.0150382 0.593516
1089 1 0.0130963 0.0816727 0.586005
1006 1 0.0511205 0.134416 0.547649
738 3 0.0761616 0.221542 0.591549
647 2 0.167926 0.104261 0.578005
192 1 0.16108 0.116109 0.557025
632 1 0.0223735 0.185342 0.583323
897 2 0.0581713 0.0366354 0.584836
826 3 0.109544 0.100749 0.54176
680 1 0.0984323 0.0320875 0.542742
548 1 0.180604 0.155011 0.590887
803 5 0.198969 0.204285 0.55156
219 1 0.117504 0.229369 0.572132
10 1 0.249544 0.228286 0.583823
991 5 0.340948 0.106829 0.590929
395 5 0.362049 0.00607899 0.511091
930 2 0.493712 0.0226988 0.500714
487 5 0.491559 0.0705695 0.549737
23 1 0.357085 0.0859733 0.528631
298 2 0.262624 0.21477 0.514407
101 1 0.320872 0.182533 0.516519
854 2 0.349771 0.125361 0.511954
470 2 0.458317 0.178579 0.51357
413 1 0.433606 0.220469 0.528063
684 1 0.482909 0.0155157 0.522531
833 1 0.409893 0.143283 0.505838
81 1 0.417179 0.0239342 0.588969
961 2 0.445519 0.0826176 0.588816
900 3 0.420162 0.215103 0.590309
945 5 0.481768 0.194414 0.556549
42 1 0.485197 0.188471 0.587044
1161 1 0.424209 0.108691 0.570003
1066 5 0.374718 0.160931 0.546858
596 1 0.287436 0.159398 0.561744
1199 2 0.303864 0.21388 0.572293
220 1 0.305754 0.01751 0.5868
646 5 0.263713 0.0729548 0.551443
837 5 0.369482 0.0323931 0.555438
438 1 0.356001 0.201917 0.583992
1117 5 0.113894 0.371162 0.593919
518 1 0.0685224 0.289368 0.595687
1001 2 0.131785 0.280592 0.51768
92 1 0.0730592 0.3087 0.515662
916 1 0.0420285 0.474817 0.507854
605 1 0.179223 0.316653 0.508883
424 2 0.0147472 0.309432 0.506459
798 5 0.189957 0.409564 0.508742
130 5 0.0184022 0.354391 0.575211
317 3 0.225593 0.464588 0.581293
611 1 0.227105 0.336121 0.549391
215 1 0.190451 0.421888 0.567365
367 5 0.0400725 0.397974 0.52815
366 1 0.0483853 0.296835 0.553841
759 1 0.13691 0.332779 0.565196
231 2 0.108787 0.278615 0.558338
153 1 0.138646 0.267123 0.539026
786 2 0.0115307 0.467741 0.588752
127 1 0.143179 0.394408 0.536743
352 1 0.0762415 0.479679 0.588879
174 2 0.174579 0.372356 0.55405
439 5 0.108729 0.475864 0.552863
556 1 0.184269 0.48344 0.598576
498 1 0.00354185 0.412794 0.59982
342 5 0.149162 0.489893 0.52477
1099 1 0.40068 0.366959 0.56527
348 5 0.490645 0.322018 0.558144
812 2 0.403868 0.332669 0.582986
1118 1 0.278009 0.429427 0.590685
943 5 0.482793 0.323352 0.522164
1057 1 0.307601 0.265276 0.558698
1194 5 0.3159 0.421155 0.55826
861 1 0.482447 0.478895 0.588879
105 2 0.278511 0.30436 0.542971
1105 1 0.323789 0.3444 0.535536
100 2 0.326956 0.399609 0.523018
977 1 0.263975 0.26417 0.52761
535 1 0.272183 0.430616 0.528441
966 1 0.381307 0.433465 0.529118
1013 1 0.338288 0.372915 0.503832
372 1 0.346588 0.321375 0.591746
227 1 0.4341 0.275458 0.577597
652 5 0.395271 0.290352 0.545682
784 2 0.433304 0.457096 0.539148
706 1 0.424201 0.478583 0.559246
303 1 0.480971 0.412251 0.537757
340 1 0.374139 0.469161 0.590449
952 2 0.425672 0.493003 0.580411
344 1 0.4422 0.362379 0.597865
558 5 0.25541 0.346881 0.598214
123 1 0.248819 0.164968 0.650137
610 1 0.247296 0.186319 0.61613
1131 5 0.157679 0.00421644 0.67861
142 1 0.181137 0.119955 0.674719
711 5 0.0969301 0.0837916 0.619306
700 1 0.157555 0.151709 0.639284
359 1 0.224049 0.0706366 0.647115
1126 1 0.101409 0.192928 0.611054
47 2 0.116775 0.198152 0.632817
94 1 0.0592632 0.191706 0.642663
230 2 0.198468 0.126844 0.653499
1108 5 0.0168966 0.0145073 0.633837
986 1 0.245866 0.0316684 0.613989
1111 1 0.0693374 0.000430951 0.602595
162 1 0.00555092 0.110495 0.627551
1094 2 0.2685 0.0455164 0.633272
1072 1 0.44176 0.168392 0.639442
753 1 0.475177 0.0666326 0.635509
209 1 0.426403 0.234858 0.612904
255 1 0.341877 0.193884 0.632193
365 1 0.298743 0.102283 0.629119
111 2 0.402133 0.216566 0.632508
651 2 0.284938 0.164264 0.63212
415 1 0.426444 0.115979 0.605579
1103 2 0.468515 0.00433774 0.639899
1042 2 0.491137 0.128118 0.634079
1085 2 0.121499 0.496649 0.603304
337 5 0.0101164 0.463736 0.624451
458 1 0.14223 0.256015 0.637363
51 1 0.151971 0.417698 0.65159
343 1 0.236489 0.299587 0.634731
1114 2 0.179821 0.298497 0.625953
1145 1 0.0607946 0.378791 0.639855
1183 5 0.145511 0.331143 0.661473
870 1 0.151303 0.355793 0.624281
631 1 0.115927 0.453282 0.619874
1069 2 0.116996 0.403565 0.634321
639 5 0.23115 0.462707 0.650696
551 1 0.185872 0.264768 0.60726
136 5 0.00935582 0.324058 0.619565
1000 1 0.327784 0.397194 0.652461
54 1 0.386557 0.483584 0.643624
71 2 0.368219 0.421726 0.638841
999 1 0.40181 0.268845 0.644834
31 5 0.337396 0.324199 0.627595
607 2 0.32105 0.464447 0.602151
202 5 0.302785 0.302055 0.660095
956 1 0.332995 0.43088 0.619633
1150 1 0.417874 0.387337 0.631339
525 2 0.464165 0.371282 0.617972
38 3 0.497184 0.490304 0.61031
370 1 0.120378 0.528826 0.353217
388 1 0.240987 0.727005 0.385227
1136 1 0.221199 0.729166 0.34987
575 1 0.236876 0.519621 0.39066
1059 1 0.00480025 0.515541 0.397828
1101 1 0.164832 0.5875 0.381379
763 1 0.11027 0.746165 0.351775
708 1 0.142254 0.643572 0.35159
85 1 0.0547583 0.603636 0.371237
839 2 0.158367 0.705558 0.350665
572 2 0.175056 0.531528 0.392222
1144 3 0.117234 0.593322 0.362753
422 5 0.0418615 0.72082 0.370825
1135 1 0.100601 0.727851 0.396049
429 5 0.265623 0.626199 0.385302
734 5 0.402727 0.718556 0.382522
919 1 0.40556 0.545941 0.396845
1033 1 0.414766 0.650597 0.341215
1064 1 0.481461 0.597308 0.363091
918 1 0.405478 0.54361 0.349559
715 2 0.421306 0.604109 0.355599
579 1 0.383309 0.61585 0.373189
124 2 0.389011 0.608678 0.394665
668 5 0.278048 0.52657 0.340645
9 1 0.488826 0.508546 0.381434
598 1 0.439915 0.644715 0.399807
1122 1 0.247934 0.934867 0.365562
1088 2 0.212448 0.881957 0.370532
286 1 0.244878 0.826237 0.367808
797 1 0.199099 0.894516 0.393628
89 1 0.156237 0.892602 0.360641
762 1 0.136985 0.993886 0.350238
416 1 0.0549687 0.92138 0.355061
6 5 0.0531169 0.818017 0.361154
519 2 0.113042 0.942477 0.36011
747 1 0.116044 0.9568 0.38207
815 2 0.144029 0.928216 0.399998
969 1 0.495546 0.766527 0.364509
404 1 0.331862 0.753953 0.36481
1186 1 0.486915 0.951929 0.360658
697 5 0.371567 0.936599 0.377705
758 1 0.439798 0.872436 0.378928
52 5 0.365846 0.82179 0.386495
176 5 0.409773 0.752142 0.345736
793 3 0.266054 0.997595 0.369818
634 2 0.493054 0.908407 0.376883
84 3 0.264565 0.757758 0.365608
679 1 0.305335 0.895423 0.394404
750 5 0.334432 0.852967 0.356769
914 1 0.49854 0.94766 0.394439
1007 1 0.184532 0.611976 0.48047
12 5 0.0855585 0.744513 0.470883
1157 1 0.0971262 0.649847 0.46802
844 2 0.235964 0.74943 0.484698
531 1 0.224002 0.730271 0.423628
718 1 0.244139 0.63163 0.421174
620 2 0.2003 0.672561 0.42857
135 1 0.190092 0.670133 0.449676
1058 1 0.140323 0.661913 0.419972
670 1 0.152808 0.579526 0.448805
444 1 0.14576 0.532389 0.412816
445 3 0.151489 0.52385 0.43619
994 5 0.012199 0.563981 0.425071
446 1 0.0329814 0.673699 0.416269
1137 2 0.0899089 0.705404 0.415712
1169 2 0.154944 0.629232 0.46231
208 1 0.216461 0.5017 0.438526
11 1 0.17363 0.743458 0.481365
173 1 0.0010475 0.52119 0.451032
1112 3 0.206975 0.572826 0.497952
398 5 0.00534402 0.649619 0.456829
739 5 0.0834945 0.597808 0.404278
45 1 0.21093 0.501823 0.498421
1083 1 0.32424 0.641762 0.476763
213 5 0.365528 0.537841 0.477764
1002 1 0.267005 0.519924 0.469915
1018 2 0.29934 0.649187 0.496598
349 1 0.254754 0.697431 0.496597
1197 2 0.451167 0.746973 0.467911
749 1 0.399815 0.706325 0.467841
554 5 0.441153 0.660847 0.494746
238 1 0.470626 0.555648 0.430348
501 5 0.490835 0.66648 0.427639
499 1 0.418681 0.725298 0.429663
528 1 0.40793 0.603548 0.459734
1049 3 0.443932 0.549469 0.451685
1031 1 0.332687 0.65509 0.442108
789 1 0.303362 0.557601 0.436696
562 1 0.328556 0.737841 0.40912
847 1 0.337112 0.614131 0.408
911 2 0.305635 0.617651 0.426734
740 2 0.272792 0.51059 0.448313
1038 2 0.367288 0.654937 0.460743
1156 3 0.262674 0.749181 0.40545
637 1 0.164269 0.979032 0.410413
426 1 0.0621854 0.846865 0.469565
1087 1 0.129021 0.953966 0.481349
167 5 0.148331 0.847265 0.486397
374 1 0.241679 0.90562 0.488113
705 2 0.238593 0.906724 0.446965
603 1 0.248111 0.908899 0.425507
475 5 0.0237916 0.911551 0.427322
823 5 0.183444 0.769641 0.448166
180 5 0.0929338 0.847754 0.438403
35 1 0.0981986 0.750372 0.431085
594 1 0.176468 0.921507 0.45166
988 2 0.129014 0.95889 0.459654
257 3 0.00991527 0.998948 0.492255
892 1 0.0745712 0.945873 0.450512
997 5 0.0274084 0.781146 0.449227
334 1 0.104922 0.886672 0.409332
434 1 0.245519 0.804637 0.495163
993 5 0.0110563 0.866836 0.401558
170 1 0.0160556 0.993032 0.413671
70 2 0.0100633 0.873832 0.477464
853 5 0.162344 0.794603 0.401079
252 1 0.00646976 0.932017 0.486594
183 2 0.25445 0.882646 0.406005
941 1 0.345336 0.959999 0.483631
764 1 0.341439 0.829296 0.470686
881 1 0.271818 0.751932 0.46683
1015 3 0.276752 0.960819 0.479687
294 1 0.43645 0.909563 0.473488
293 1 0.460397 0.765391 0.488886
1062 5 0.499187 0.796746 0.400924
874 2 0.406789 0.965429 0.477557
140 1 0.399703 0.817535 0.416534
699 1 0.407032 0.928716 0.413134
958 3 0.402886 0.856164 0.463341
325 1 0.438905 0.801645 0.457459
277 1 0.485134 0.871888 0.427003
898 3 0.446397 0.982993 0.406002
356 2 0.421409 0.875067 0.424413
1034 1 0.386897 0.884116 0.442586
226 1 0.276802 0.948002 0.456249
138 1 0.331135 0.783115 0.440148
513 2 0.299755 0.803407 0.457176
980 5 0.335949 0.976995 0.433803
144 2 0.370785 0.762818 0.424064
942 1 0.251409 0.846273 0.453511
386 1 0.25037 0.81742 0.406946
361 5 0.017317 0.610564 0.548352
1189 5 0.156791 0.690583 0.50689
549 1 0.0716587 0.676681 0.530489
1147 5 0.0777024 0.623913 0.502122
665 2 0.0260087 0.720774 0.530695
657 1 0.168481 0.584964 0.517138
618 5 0.247361 0.523601 0.527193
655 5 0.217259 0.668391 0.535777
120 1 0.229798 0.609941 0.563223
910 5 0.123507 0.606409 0.543361
182 1 0.145474 0.546421 0.570316
39 1 0.0573898 0.532953 0.537724
616 1 0.0305993 0.642048 0.579184
506 1 0.141068 0.640143 0.581599
1142 5 0.0358072 0.546243 0.570273
820 2 0.0837194 0.670801 0.585908
751 1 0.166417 0.729297 0.549966
145 1 0.0902125 0.72621 0.574838
1061 2 0.182037 0.592772 0.577882
7 1 0.0183536 0.741782 0.509831
544 1 0.214128 0.582667 0.596435
685 2 0.0150384 0.516703 0.522173
307 2 0.369906 0.700538 0.526872
678 1 0.348206 0.66683 0.509583
568 5 0.342985 0.554842 0.517776
168 1 0.271813 0.593027 0.501589
978 2 0.462925 0.52265 0.505937
283 1 0.407223 0.746588 0.517697
387 1 0.422808 0.568093 0.500103
581 1 0.412106 0.66858 0.539738
902 1 0.408596 0.67081 0.573826
181 1 0.415205 0.556764 0.580989
1170 2 0.435811 0.702439 0.557311
541 5 0.408872 0.575978 0.54851
281 1 0.315721 0.574654 0.545618
79 1 0.317977 0.720252 0.537437
1 1 0.319799 0.604473 0.579671
143 1 0.262771 0.515377 0.570457
1028 3 0.385274 0.617516 0.586232
534 2 0.285257 0.575161 0.564683
886 5 0.280981 0.696617 0.567953
268 1 0.45454 0.510634 0.52773
640 1 0.0458859 0.997824 0.56794
862 1 0.0106056 0.970934 0.535506
949 5 0.0108787 0.87525 0.52127
490 5 0.116406 0.830786 0.529113
1050 1 0.0982666 0.896626 0.508959
474 1 0.168766 0.975796 0.514415
576 2 0.11692 0.957008 0.502983
246 1 0.221309 0.864173 0.521203
702 1 0.0398743 0.770987 0.542803
841 5 0.248669 0.786067 0.538441
1116 1 0.220124 0.954562 0.591594
1141 1 0.218777 0.987076 0.546772
262 1 0.172076 0.763303 0.585616
727 3 0.0858977 0.878861 0.566415
860 2 0.0635162 0.981237 0.547606
451 5 0.154535 0.981116 0.567913
405 1 0.094243 0.909666 0.586593
765 1 0.124865 0.823539 0.563583
399 5 0.190404 0.890421 0.550241
376 1 0.0990683 0.927031 0.549013
482 1 0.0233951 0.858156 0.563761
567 2 0.140679 0.760041 0.566099
816 1 0.246938 0.834246 0.567495
545 2 0.21968 0.998506 0.525578
1113 1 0.496899 0.80237 0.523568
1011 2 0.257683 0.863197 0.503599
1184 1 0.319422 0.871701 0.509327
495 1 0.399876 0.93602 0.524908
1093 2 0.376603 0.8776 0.518762
41 1 0.274541 0.974709 0.518164
511 1 0.4192 0.845287 0.506799
83 2 0.450676 0.788647 0.508951
368 2 0.391185 0.819863 0.556855
414 1 0.453621 0.96938 0.555601
719 3 0.46275 0.957758 0.533246
1095 1 0.452771 0.765218 0.589704
315 1 0.417064 0.762459 0.553562
484 1 0.434955 0.863584 0.562636
450 2 0.429727 0.925011 0.569524
360 1 0.454034 0.922191 0.589658
731 1 0.34896 0.825251 0.573103
905 1 0.367224 0.938455 0.574112
1115 1 0.285439 0.764946 0.59204
310 5 0.283893 0.912614 0.545328
221 2 0.29067 0.822682 0.582689
592 1 0.368274 0.846206 0.538068
1023 1 0.286734 0.87111 0.597376
234 3 0.36185 0.982574 0.591941
913 5 0.116785 0.68456 0.667634
68 1 0.223243 0.553227 0.63125
852 2 0.246256 0.694697 0.663399
440 5 0.228529 0.686323 0.602112
329 1 0.236343 0.642562 0.650523
950 2 0.19554 0.594309 0.644856
710 1 0.225079 0.749891 0.653673
1166 1 0.209368 0.684574 0.681242
627 1 0.0655234 0.592912 0.669218
819 1 0.0823649 0.661159 0.607766
1020 1 0.0413361 0.741575 0.637374
609 2 0.093061 0.608756 0.621084
704 1 0.181939 0.562442 0.662446
891 1 0.106217 0.555096 0.61049
455 1 0.149303 0.621676 0.633222
955 1 0.0462936 0.603384 0.635101
393 5 0.14055 0.623634 0.690359
906 2 0.0287751 0.572418 0.652746
1104 1 0.030441 0.508961 0.650042
50 5 0.108194 0.50279 0.670127
459 1 0.032989 0.71082 0.671512
1065 2 0.0027518 0.741257 0.656036
437 5 0.262492 0.590684 0.681102
483 1 0.44255 0.521383 0.619338
1008 1 0.413412 0.729081 0.653019
1191 1 0.479305 0.748508 0.622485
1074 2 0.40846 0.540888 0.636927
106 1 0.450756 0.569236 0.648946
119 1 0.381184 0.639077 0.607954
125 1 0.309719 0.697518 0.668446
1125 2 0.252304 0.567466 0.61243
186 2 0.350158 0.729065 0.654744
923 1 0.282367 0.624191 0.617014
733 1 0.295287 0.521803 0.607683
927 1 0.336472 0.69371 0.636806
363 1 0.361184 0.586177 0.635081
129 2 0.340798 0.638676 0.62457
17 2 0.498739 0.73902 0.601461
1180 5 0.369504 0.738246 0.600727
521 1 0.183887 0.855857 0.602319
1046 1 0.00360363 0.922014 0.603514
937 3 0.22081 0.915848 0.645838
442 2 0.232916 0.900628 0.603981
1167 2 0.216494 0.795029 0.637863
588 1 0.184116 0.768584 0.62146
653 1 0.235999 0.921697 0.623769
80 1 0.181235 0.850828 0.64267
712 1 0.0923201 0.792623 0.608482
1067 2 0.155709 0.797468 0.603321
502 2 0.00515443 0.85952 0.647883
802 2 0.0384832 0.777599 0.618561
244 3 0.123207 0.897911 0.642682
324 1 0.162563 0.950481 0.650638
1124 2 0.0685087 0.935496 0.604081
1003 1 0.0662903 0.876626 0.652693
60 1 0.100135 0.919151 0.621779
345 1 0.0132301 0.830578 0.628621
1123 1 0.36063 0.961068 0.61364
205 5 0.35464 0.947794 0.67092
104 5 0.266756 0.818337 0.681747
177 3 0.334152 0.833525 0.6417
217 1 0.274036 0.813797 0.631907
960 1 0.258504 0.903141 0.664101
1110 2 0.355414 0.960736 0.63485
1014 1 0.40835 0.989096 0.645238
1106 1 0.387982 0.796654 0.629702
338 1 0.480884 0.810829 0.649271
838 1 0.476858 0.966419 0.62269
491 2 0.441942 0.770435 0.638675
132 1 0.33231 0.789092 0.658879
908 1 0.35237 0.900632 0.641722
867 5 0.40813 0.842161 0.600127
99 2 0.495164 0.9322 0.6059
931 1 0.303799 0.998454 0.641418
285 1 0.716766 0.168749 0.395105
725 1 0.641881 0.059523 0.370169
464 1 0.700279 0.132731 0.352297
1178 2 0.737018 0.212147 0.381622
1092 2 0.697039 0.0702819 0.358523
810 1 0.746056 0.0626546 0.374192
1016 5 0.584529 0.138857 0.373615
321 1 0.541348 0.0472168 0.371155
934 1 0.528821 0.227612 0.369508
1148 2 0.595881 0.0269534 0.381278
757 1 0.535658 0.151296 0.345015
328 2 0.545464 0.213761 0.348852
688 1 0.710043 0.232368 0.339277
845 1 0.52965 0.018145 0.333646
984 1 0.685643 0.240402 0.370929
121 5 0.600589 0.0885499 0.338865
267 1 0.606675 0.226254 0.347917
822 5 0.603481 0.233594 0.394316
903 1 0.70783 0.0274544 0.344047
385 5 0.736191 0.0704354 0.315253
1026 1 0.781781 0.19448 0.366554
614 1 0.97806 0.22097 0.359565
1073 2 0.811673 0.0649896 0.379489
818 2 0.850693 0.111087 0.340736
330 1 0.900389 0.155 0.344888
540 5 0.876646 0.178579 0.380577
957 1 0.940036 0.036494 0.393965
992 5 0.966378 0.0744169 0.343451
288 2 0.932978 0.209529 0.344186
1068 1 0.797428 0.142703 0.333429
990 1 0.837801 0.0882992 0.360538
107 1 0.874842 0.0701695 0.327005
585 3 0.75039 0.178038 0.346505
389 1 0.979784 0.211512 0.328864
159 2 0.998537 0.00932314 0.394121
1163 1 0.823744 0.0992934 0.39647
1032 1 0.826668 0.00322456 0.382904
1146 5 0.999865 0.245614 0.389628
555 1 0.738559 0.405889 0.351762
497 5 0.66225 0.39464 0.330048
216 1 0.645503 0.48779 0.361252
940 1 0.590425 0.32338 0.384845
729 1 0.643829 0.321646 0.353886
16 2 0.660894 0.2589 0.352045
396 1 0.739613 0.479208 0.379909
254 2 0.678211 0.462322 0.376679
77 1 0.661732 0.398701 0.377789
774 1 0.566579 0.390469 0.36101
1192 2 0.616255 0.357869 0.368876
428 1 0.622418 0.480294 0.327277
690 3 0.500915 0.403274 0.359114
649 1 0.64676 0.486276 0.39497
929 1 0.506187 0.251692 0.336521
676 1 0.766835 0.357315 0.383537
692 2 0.782557 0.378349 0.363577
745 3 0.897199 0.425254 0.361508
1010 1 0.88015 0.279119 0.378748
1096 1 0.765116 0.259289 0.392613
436 1 0.900897 0.457108 0.342617
299 1 0.913877 0.358248 0.360129
1200 1 0.829361 0.423065 0.369614
261 1 0.889454 0.258755 0.344275
947 2 0.876352 0.306418 0.357831
686 2 0.990497 0.499101 0.377264
732 2 0.804772 0.469706 0.382663
341 1 0.938111 0.454699 0.377794
1045 1 0.818732 0.33212 0.354374
477 5 0.96113 0.387131 0.327923
1019 5 0.535893 0.11299 0.466625
1030 2 0.530719 0.24951 0.487787
146 1 0.569392 0.206038 0.477922
691 1 0.620457 0.123009 0.48901
713 1 0.63871 0.0206744 0.496648
613 2 0.626605 0.178542 0.478088
179 1 0.671097 0.216603 0.485514
469 5 0.737398 0.0372365 0.484236
783 1 0.676 0.0576861 0.462003
2 1 0.618612 0.0907045 0.432531
454 1 0.637211 0.156368 0.45739
401 5 0.737969 0.194661 0.459217
128 5 0.593405 0.00945851 0.466159
489 1 0.717124 0.118909 0.437227
864 2 0.663792 0.102955 0.44791
795 5 0.668231 0.189689 0.424027
3 2 0.580412 0.0978853 0.414893
30 1 0.519134 0.10193 0.420254
115 1 0.51426 0.237627 0.405903
517 5 0.686243 0.0774323 0.403378
840 1 0.595708 0.0478826 0.401721
687 1 0.506894 0.081751 0.493818
1175 1 0.597273 0.149838 0.40415
770 1 0.508543 0.0115347 0.456674
693 5 0.764285 0.237373 0.492723
478 1 0.798254 0.113935 0.47698
682 5 0.96063 0.104543 0.493871
253 5 0.902623 0.0399416 0.47284
622 2 0.849045 0.153165 0.477738
493 5 0.917172 0.120846 0.407872
116 1 0.87049 0.158584 0.498136
199 5 0.869708 0.00463727 0.413729
683 1 0.987509 0.225113 0.460385
782 1 0.828434 0.21181 0.47123
582 5 0.923184 0.177362 0.436166
1179 5 0.984026 0.122756 0.460222
522 5 0.792251 0.171139 0.417221
214 1 0.879417 0.225147 0.410354
829 1 0.895062 0.133131 0.464953
95 5 0.79692 0.0712016 0.44751
672 1 0.752019 0.24781 0.434448
466 1 0.510142 0.294996 0.475097
218 5 0.603109 0.387958 0.472391
1052 5 0.694048 0.306267 0.481622
1168 5 0.733521 0.42251 0.493198
546 2 0.594198 0.300669 0.443868
721 5 0.623649 0.370067 0.410351
593 3 0.652961 0.485094 0.453183
433 1 0.720553 0.341448 0.44877
312 1 0.6479 0.285487 0.431272
1004 2 0.746189 0.397954 0.454412
44 2 0.710934 0.29764 0.43315
57 1 0.614487 0.29914 0.463906
37 1 0.729941 0.332586 0.415834
669 1 0.700376 0.439236 0.460346
767 1 0.591351 0.479617 0.462339
586 1 0.577507 0.361595 0.439109
536 1 0.507965 0.453841 0.439715
1133 1 0.548063 0.258444 0.43747
863 2 0.528771 0.466045 0.459836
664 1 0.647425 0.487541 0.430057
976 5 0.514297 0.360371 0.412835
880 1 0.510406 0.416482 0.472207
297 1 0.836169 0.321501 0.408095
1091 1 0.785921 0.380029 0.471069
761 3 0.844062 0.366185 0.483003
476 5 0.915717 0.25784 0.478628
357 2 0.884372 0.486786 0.494335
263 1 0.898448 0.349846 0.470561
1138 1 0.946598 0.471808 0.493169
735 1 0.85601 0.428572 0.493368
636 1 0.8714 0.475682 0.431718
674 1 0.813701 0.453777 0.403585
64 2 0.810087 0.466173 0.425436
131 1 0.940957 0.309124 0.40517
1021 5 0.840548 0.29121 0.453162
1190 5 0.940318 0.439419 0.412252
1035 5 0.930233 0.429877 0.457233
103 1 0.783796 0.42337 0.439169
604 5 0.987454 0.255935 0.431169
467 2 0.88366 0.28337 0.400235
799 2 0.773632 0.318591 0.400599
1121 2 0.565721 0.138664 0.529057
1109 1 0.504317 0.147891 0.523987
164 1 0.594368 0.0868743 0.519832
58 1 0.695252 0.100911 0.512573
901 2 0.639495 0.0812439 0.503724
304 1 0.599793 0.19161 0.523412
1041 1 0.569903 0.131992 0.550729
936 1 0.726621 0.0365221 0.592066
1139 1 0.651321 0.0904328 0.569426
53 1 0.687781 0.133124 0.597713
626 2 0.615057 0.141697 0.566244
210 5 0.718782 0.0643456 0.540698
339 2 0.700693 0.0870231 0.582968
43 5 0.69763 0.201292 0.532892
369 1 0.650384 0.190912 0.559501
971 1 0.685475 0.239544 0.589963
830 1 0.583481 0.161506 0.584389
350 2 0.560208 0.0265978 0.588747
250 2 0.537808 0.178476 0.598722
1195 1 0.51233 0.070644 0.588105
1044 1 0.579029 0.00993407 0.569548
1154 5 0.787784 0.12402 0.509861
515 5 0.88026 0.0964246 0.524586
408 1 0.9693 0.121747 0.52561
384 5 0.897056 0.223405 0.523396
224 1 0.811354 0.028555 0.525617
1198 1 0.810751 0.184661 0.553169
157 1 0.910683 0.0407913 0.579766
1005 1 0.842244 0.0826898 0.557843
332 1 0.957514 0.135717 0.560967
1187 2 0.882063 0.0317937 0.560892
809 2 0.981717 0.135353 0.580908
118 2 0.809099 0.133334 0.56603
147 1 0.922744 0.0209511 0.543827
570 1 0.936547 0.151364 0.595003
200 2 0.989952 0.151253 0.543093
273 1 0.833228 0.158439 0.584078
228 1 0.750218 0.113534 0.571487
736 5 0.825658 0.0288261 0.595954
794 1 0.956674 0.0130098 0.508157
677 1 0.986443 0.214613 0.537975
801 1 0.561287 0.486248 0.548204
73 2 0.591125 0.25735 0.524066
152 1 0.617412 0.372104 0.596785
895 1 0.538278 0.398738 0.504876
427 2 0.598393 0.409307 0.512401
509 1 0.594151 0.394405 0.533229
878 1 0.560559 0.272318 0.505361
924 1 0.606972 0.47275 0.508131
235 1 0.648172 0.288136 0.525676
279 1 0.64618 0.37389 0.502634
899 1 0.728523 0.492117 0.513985
948 3 0.685477 0.342877 0.519547
431 2 0.681249 0.472102 0.582237
379 2 0.717425 0.463912 0.532513
720 1 0.741765 0.268848 0.558775
890 1 0.728356 0.431255 0.589977
831 2 0.615893 0.374787 0.57504
98 1 0.737486 0.325545 0.586648
203 2 0.701422 0.286464 0.574078
716 1 0.703927 0.400265 0.530721
391 1 0.650025 0.428028 0.57044
351 1 0.651046 0.323244 0.568514
944 1 0.643239 0.498946 0.596482
1119 3 0.54421 0.418519 0.547444
1056 1 0.547302 0.263617 0.53973
850 1 0.556914 0.381366 0.566688
1081 5 0.578784 0.254702 0.570934
172 1 0.66486 0.495403 0.53958
869 3 0.987201 0.282089 0.543961
612 1 0.751275 0.324729 0.51282
884 1 0.824837 0.28059 0.534056
843 5 0.922065 0.390443 0.517952
488 1 0.973106 0.307622 0.523264
825 2 0.81167 0.328668 0.5211
133 1 0.84868 0.327498 0.503124
18 1 0.797846 0.391172 0.565524
982 3 0.809707 0.253605 0.555181
1102 1 0.872242 0.45797 0.553371
769 1 0.846551 0.277374 0.573013
291 1 0.908511 0.358796 0.58641
1158 1 0.933772 0.25696 0.591747
623 1 0.984222 0.46199 0.569048
1100 2 0.819364 0.425253 0.54775
946 1 0.941174 0.304112 0.558826
742 2 0.907401 0.299848 0.577226
266 1 0.971156 0.481417 0.533126
529 1 0.824693 0.381821 0.531822
530 3 0.937976 0.486029 0.552822
737 2 0.770473 0.381957 0.585482
189 1 0.771571 0.469022 0.54455
56 1 0.820277 0.388223 0.598258
300 2 0.575128 0.191444 0.650818
1043 1 0.636225 0.199617 0.655225
788 1 0.739889 0.185769 0.650151
354 2 0.698363 0.192525 0.604089
441 2 0.632226 0.0204164 0.620638
748 1 0.667433 0.208604 0.623011
875 1 0.609819 0.0440161 0.60209
1152 1 0.667119 0.0578848 0.633076
122 5 0.728112 0.0830159 0.658422
656 2 0.688 0.22095 0.643996
539 1 0.536877 0.14112 0.649447
1025 1 0.524925 0.145607 0.616547
240 1 0.553242 0.240344 0.606623
601 1 0.551798 0.243226 0.641475
448 5 0.747656 0.0965816 0.632633
615 1 0.925852 0.00948355 0.644239
932 1 0.811466 0.0408742 0.65933
194 5 0.986256 0.0328355 0.684874
33 5 0.88445 0.102726 0.650469
383 1 0.958063 0.168152 0.653769
93 1 0.972386 0.208851 0.622184
666 1 0.86916 0.205146 0.613384
975 5 0.920205 0.0680746 0.61062
335 1 0.825554 0.10873 0.614169
292 2 0.824067 0.166816 0.604989
1151 1 0.763695 0.19475 0.607711
1140 2 0.999933 0.168043 0.637427
507 2 0.929993 0.207344 0.605791
355 1 0.719278 0.387298 0.655039
524 1 0.503497 0.319616 0.624028
223 1 0.616624 0.416329 0.628164
933 2 0.63906 0.364383 0.616719
642 2 0.711776 0.450729 0.655406
527 1 0.702167 0.360262 0.621744
457 2 0.734533 0.341946 0.639769
771 1 0.70515 0.284585 0.644578
1130 2 0.558849 0.446641 0.631103
641 1 0.544256 0.455903 0.65118
463 2 0.553271 0.28009 0.623782
1009 1 0.608811 0.312376 0.624426
193 1 0.508294 0.421815 0.618741
471 1 0.672156 0.496598 0.660228
430 5 0.806245 0.281461 0.60459
1182 5 0.92744 0.253101 0.664598
1080 2 0.884437 0.394 0.603229
972 1 0.881629 0.455748 0.609478
1040 1 0.894433 0.333948 0.654761
963 1 0.851709 0.427899 0.644276
569 1 0.798119 0.343887 0.636886
65 1 0.890556 0.353764 0.620985
1132 2 0.823963 0.484403 0.639144