ITEM: TIMESTEP
700
ITEM: NUMBER OF ATOMS
1200
ITEM: BOX BOUNDS pp pp pp
-7.6266250050336382e-02 2.5098596345622489e+01
-7.6266250050336382e-02 2.5098596345622489e+01
-2.5251128845723162e+01 5.0273458941295317e+01
ITEM: ATOMS id type xs ys zs
760 1 0.0624659 0.12442 0.393994
1149 3 0.231997 0.108938 0.354005
419 1 0.216649 0.130983 0.374956
108 1 0.224428 0.0372593 0.356461
456 1 0.480668 0.336264 0.348649
96 1 0.0443507 0.0284753 0.383873
635 5 0.266391 0.208453 0.325369
1076 1 0.179996 0.10125 0.33552
1193 1 0.10968 0.0800671 0.360873
580 5 0.13685 0.183635 0.378816
269 2 0.0247104 0.240415 0.345983
638 5 0.126775 0.175364 0.323404
390 2 0.0870858 0.0757479 0.381789
645 3 0.154411 0.0452264 0.348202
967 1 0.0823288 0.218267 0.349669
917 2 0.434398 0.498554 0.388207
26 5 0.147074 0.381568 0.323708
542 1 0.141862 0.0560331 0.391853
935 2 0.456319 0.281025 0.339916
787 1 0.426657 0.24461 0.3546
893 5 0.360888 0.253855 0.380714
314 1 0.439793 0.188566 0.386055
590 2 0.489589 0.230459 0.382167
577 2 0.110053 0.460416 0.3658
460 1 0.340066 0.469432 0.345342
559 1 0.43305 0.0307299 0.356396
1053 1 0.308346 0.363255 0.340105
973 5 0.38913 0.144931 0.340654
565 5 0.309563 0.423431 0.375604
468 2 0.39628 0.145481 0.392808
1174 1 0.289521 0.137796 0.34669
1037 1 0.385144 0.0995406 0.378077
432 5 0.276942 0.212061 0.373215
196 2 0.390345 0.0371652 0.372082
82 1 0.219714 0.301362 0.335662
346 2 0.262759 0.322393 0.349429
533 1 0.165941 0.261509 0.399328
1173 1 0.0724807 0.303945 0.396132
40 5 0.125936 0.303009 0.35324
804 1 0.239737 0.00936834 0.390691
813 1 0.0465884 0.462699 0.373442
403 5 0.146725 0.353158 0.380559
465 1 0.332424 0.01149 0.369238
1071 1 0.235993 0.341831 0.368382
834 1 0.143638 0.474486 0.385045
418 1 0.0253828 0.302907 0.343203
915 1 0.125152 0.403683 0.356851
703 2 0.399605 0.478612 0.351854
241 1 0.46786 0.292372 0.381864
907 1 0.415068 0.00458229 0.389035
373 1 0.396856 0.464276 0.373621
1171 1 0.451427 0.448204 0.345596
409 1 0.478283 0.398314 0.37846
1159 2 0.436787 0.350081 0.380396
412 2 0.362964 0.327033 0.346945
628 1 0.401455 0.306733 0.330655
660 1 0.313538 0.282055 0.353327
151 1 0.386816 0.348692 0.365017
904 5 0.00886973 0.355737 0.376705
690 3 0.49867 0.405987 0.356261
290 1 0.34148 0.175824 0.39715
624 3 0.497812 0.00348155 0.354507
998 1 0.405586 0.354158 0.399334
296 1 0.0671696 0.00488558 0.502522
397 2 0.0430552 0.22853 0.472022
885 5 0.185557 0.20864 0.47664
1185 5 0.0614817 0.0954685 0.496095
88 1 0.0285728 0.172952 0.481634
28 1 0.210699 0.114435 0.491218
62 5 0.244975 0.030238 0.446144
953 5 0.0958636 0.0228253 0.427497
102 5 0.480677 0.354635 0.442258
1060 5 0.170454 0.202426 0.439218
137 5 0.169035 0.104009 0.444366
377 2 0.0557741 0.150097 0.414538
537 1 0.206761 0.06348 0.418929
15 5 0.0669092 0.0676106 0.458717
353 1 0.0824676 0.208074 0.41016
1017 1 0.103739 0.228878 0.465128
1024 1 0.0825798 0.118163 0.430602
472 1 0.252295 0.0225843 0.480422
75 1 0.3116 0.0975956 0.496879
375 2 0.262102 0.0839972 0.483077
206 1 0.262752 0.22002 0.494519
407 1 0.481614 0.210259 0.493342
985 5 0.353553 0.494446 0.41484
247 5 0.426965 0.112863 0.470096
378 2 0.463718 0.0172053 0.444623
516 1 0.459108 0.0814797 0.443155
406 1 0.478813 0.178133 0.430908
91 1 0.423514 0.11479 0.410423
1054 5 0.0050759 0.344054 0.460612
920 2 0.469798 0.115862 0.42546
211 5 0.321599 0.0152264 0.406824
858 1 0.263583 0.173018 0.437923
443 2 0.308432 0.133067 0.44598
14 1 0.32376 0.0800751 0.434842
322 5 0.377476 0.221629 0.425609
968 1 0.280432 0.108879 0.464413
1117 5 0.0958464 0.358954 0.59742
72 1 0.360212 0.16911 0.452248
32 5 0.294586 0.23807 0.462837
364 1 0.00895736 0.374434 0.498009
779 5 0.156562 0.437687 0.465429
871 3 0.0162093 0.44144 0.492017
242 1 0.0323556 0.275996 0.487185
754 1 0.0460728 0.453231 0.471288
78 5 0.149401 0.299369 0.481463
34 1 0.249556 0.418123 0.47819
1099 1 0.395402 0.386054 0.568195
663 1 0.112362 0.355689 0.456119
188 5 0.241055 0.339464 0.4008
1079 5 0.231117 0.433871 0.414265
991 5 0.343699 0.107123 0.590824
435 1 0.198197 0.292131 0.451997
392 1 0.00474661 0.424382 0.439236
591 5 0.0185429 0.3635 0.415855
827 1 0.115217 0.291587 0.428071
689 2 0.151167 0.325067 0.442177
722 1 0.0938317 0.483248 0.440158
1128 2 0.0372638 0.469121 0.450228
249 2 0.108379 0.265728 0.408252
265 1 0.178964 0.369564 0.428575
741 5 0.0943886 0.440113 0.412016
348 5 0.476501 0.333763 0.554416
395 5 0.361844 0.00843507 0.50872
1078 1 0.377359 0.41014 0.467771
564 2 0.374652 0.369504 0.485075
139 5 0.262041 0.325387 0.488554
547 1 0.322004 0.482437 0.495864
561 1 0.358359 0.311831 0.476975
256 2 0.265881 0.476525 0.486245
447 2 0.483627 0.41105 0.490813
4 1 0.435233 0.36883 0.492936
204 1 0.458626 0.467215 0.497614
1059 1 0.004783 0.487204 0.402687
608 1 0.450157 0.47074 0.407076
812 2 0.395295 0.351516 0.586152
1070 2 0.189444 0.0269497 0.403101
696 5 0.424272 0.259752 0.45888
996 1 0.470885 0.278162 0.426709
208 1 0.214192 0.489088 0.439206
382 5 0.254283 0.261995 0.424845
1039 5 0.261211 0.364267 0.448634
109 1 0.330409 0.31483 0.421743
694 1 0.314304 0.453478 0.444937
494 2 0.364226 0.366237 0.415518
308 1 0.391438 0.393169 0.433382
633 1 0.320258 0.40896 0.408546
410 2 0.375554 0.436276 0.448193
550 1 0.132874 0.1112 0.516744
574 5 0.0570416 0.177973 0.512335
1155 1 0.136454 0.227739 0.505917
520 2 0.194838 0.11609 0.511967
811 1 0.220753 0.0623963 0.520592
643 1 0.222721 0.165836 0.521418
785 1 0.105819 0.0803805 0.582612
857 1 0.201782 0.056663 0.58416
69 2 0.21093 0.208341 0.596827
114 2 0.238402 0.0185893 0.596318
45 1 0.212047 0.49829 0.49622
1089 1 0.00738335 0.0676349 0.591777
1006 1 0.0618534 0.134792 0.542233
738 3 0.0837297 0.213654 0.592044
647 2 0.163522 0.105618 0.576258
192 1 0.162065 0.10477 0.55429
632 1 0.0314933 0.168622 0.58559
897 2 0.0609202 0.0352962 0.586747
826 3 0.114653 0.0914616 0.53818
680 1 0.10182 0.023967 0.539733
548 1 0.186438 0.157944 0.58618
803 5 0.196107 0.199412 0.551136
219 1 0.115037 0.233075 0.572073
23 1 0.355429 0.0812131 0.52843
298 2 0.266062 0.208835 0.515186
101 1 0.323979 0.178612 0.51854
854 2 0.351393 0.122146 0.512323
1118 1 0.2858 0.435928 0.593487
470 2 0.456664 0.181185 0.511065
413 1 0.431663 0.227134 0.523882
684 1 0.487334 0.0133103 0.520286
833 1 0.40996 0.140363 0.505147
943 5 0.477551 0.31181 0.515215
81 1 0.410008 0.0339768 0.591966
961 2 0.448525 0.0864476 0.588816
900 3 0.419894 0.238002 0.589767
945 5 0.479005 0.200932 0.553317
42 1 0.477515 0.200402 0.584452
1057 1 0.313644 0.273058 0.557218
1161 1 0.435189 0.103363 0.568699
1066 5 0.383572 0.154336 0.548019
596 1 0.292094 0.169263 0.558396
1199 2 0.307133 0.221173 0.569768
10 1 0.254799 0.228675 0.582038
220 1 0.298693 0.0202551 0.588499
646 5 0.271951 0.0744271 0.548994
837 5 0.376147 0.0245013 0.552111
438 1 0.361249 0.210123 0.5813
1001 2 0.142016 0.282877 0.517172
92 1 0.0869373 0.31757 0.512578
916 1 0.0496792 0.469199 0.510075
1194 5 0.312252 0.428524 0.559768
861 1 0.482896 0.498002 0.592157
605 1 0.190507 0.315466 0.509445
424 2 0.0270408 0.315856 0.504105
798 5 0.190187 0.408256 0.509951
558 5 0.246969 0.340322 0.587309
317 3 0.228464 0.464646 0.584365
611 1 0.23323 0.338946 0.550992
215 1 0.200263 0.42199 0.568845
367 5 0.0438404 0.39682 0.53232
105 2 0.28216 0.30691 0.542008
366 1 0.0455544 0.296619 0.553395
130 5 0.00936799 0.333139 0.579838
759 1 0.140479 0.334157 0.566076
231 2 0.108081 0.280676 0.557697
153 1 0.138251 0.270886 0.538396
786 2 0.00968886 0.466008 0.591877
1105 1 0.325733 0.348244 0.534198
127 1 0.145562 0.396001 0.538618
352 1 0.0766575 0.472553 0.589711
174 2 0.18244 0.37595 0.554919
439 5 0.108789 0.468613 0.557731
100 2 0.329423 0.403637 0.522276
922 5 0.354499 0.2555 0.502205
977 1 0.266242 0.260944 0.528241
535 1 0.272294 0.431777 0.525373
966 1 0.380728 0.435412 0.530164
1013 1 0.338885 0.379891 0.502363
372 1 0.342407 0.324303 0.593121
227 1 0.433119 0.299311 0.580912
851 1 0.412099 0.489316 0.446921
652 5 0.396178 0.293419 0.546553
309 5 0.254533 0.138239 0.403339
784 2 0.434495 0.461878 0.539743
20 1 0.148842 0.0185715 0.456023
706 1 0.426577 0.489095 0.558909
303 1 0.484691 0.419985 0.539307
340 1 0.378634 0.484412 0.591824
640 1 0.0565323 0.000173842 0.569336
1000 1 0.328765 0.40858 0.656181
123 1 0.258041 0.179765 0.647796
610 1 0.246541 0.186551 0.613243
1094 2 0.265429 0.0564269 0.635733
50 5 0.113116 0.499917 0.658199
1131 5 0.12925 0.0216979 0.674151
142 1 0.197275 0.155411 0.677467
71 2 0.366668 0.436257 0.642117
1085 2 0.119335 0.488261 0.605429
711 5 0.0858012 0.0900949 0.616762
700 1 0.157171 0.161134 0.643992
359 1 0.224137 0.0806983 0.651176
1126 1 0.117319 0.186297 0.612341
47 2 0.116913 0.203842 0.632532
94 1 0.0558102 0.203678 0.640139
230 2 0.207574 0.147115 0.656296
1072 1 0.436022 0.170613 0.635476
753 1 0.476337 0.0668633 0.633496
999 1 0.391549 0.265341 0.646908
31 5 0.331676 0.314808 0.628089
1108 5 0.0336699 0.0156483 0.63829
209 1 0.430618 0.247747 0.612993
607 2 0.326874 0.476285 0.6039
136 5 0.0134447 0.2959 0.627951
255 1 0.341227 0.205519 0.624753
986 1 0.239129 0.04221 0.616719
202 5 0.309366 0.310802 0.666849
365 1 0.305126 0.106417 0.629841
111 2 0.400823 0.223929 0.630752
651 2 0.288231 0.170003 0.628459
458 1 0.142744 0.262471 0.635615
51 1 0.139414 0.405982 0.652707
343 1 0.237063 0.307503 0.632078
1114 2 0.180004 0.301659 0.623226
1145 1 0.0558835 0.366565 0.641137
1183 5 0.122697 0.306265 0.66457
870 1 0.148273 0.356811 0.622695
415 1 0.42861 0.122532 0.604896
956 1 0.337583 0.454236 0.623944
1103 2 0.46566 0.00665296 0.639309
1042 2 0.485926 0.129694 0.630834
631 1 0.10273 0.448595 0.621649
1069 2 0.107787 0.396208 0.634011
1150 1 0.413875 0.398055 0.635492
639 5 0.232035 0.426046 0.651939
525 2 0.459198 0.389903 0.620172
551 1 0.18546 0.266375 0.603543
931 1 0.295438 0.00565766 0.643179
344 1 0.428001 0.386499 0.600476
162 1 0.00464323 0.121494 0.628451
54 1 0.391742 0.494698 0.647202
524 1 0.49436 0.336824 0.622168
556 1 0.180211 0.479977 0.600227
518 1 0.0606758 0.272822 0.600263
370 1 0.122642 0.515317 0.352395
575 1 0.240761 0.50588 0.393909
388 1 0.23723 0.735697 0.389794
1136 1 0.214019 0.716613 0.353952
510 1 0.00433826 0.625764 0.395073
429 5 0.255714 0.639917 0.383868
739 5 0.122465 0.640746 0.3934
1101 1 0.178169 0.573853 0.379943
763 1 0.112132 0.746403 0.354042
404 1 0.328493 0.748091 0.367113
708 1 0.14557 0.639106 0.353028
734 5 0.411359 0.743238 0.39026
85 1 0.0750338 0.582625 0.373662
839 2 0.15153 0.70177 0.352274
212 2 0.0147543 0.600791 0.375517
1144 3 0.132282 0.578378 0.360144
422 5 0.0377887 0.71781 0.375361
919 1 0.395999 0.547436 0.393765
598 1 0.426572 0.640832 0.399951
1033 1 0.393762 0.656609 0.34069
697 5 0.376828 0.919807 0.372781
1064 1 0.468624 0.60952 0.363462
918 1 0.403373 0.54541 0.349847
758 1 0.444553 0.856617 0.378303
715 2 0.407002 0.609575 0.354892
52 5 0.363957 0.826464 0.3893
176 5 0.423332 0.746829 0.353817
579 1 0.363558 0.620079 0.372063
124 2 0.375048 0.608901 0.393416
668 5 0.296308 0.52625 0.364975
807 5 0.345335 0.522443 0.316352
1122 1 0.25047 0.932904 0.362102
1088 2 0.217967 0.882156 0.367882
286 1 0.243294 0.824492 0.366707
797 1 0.201057 0.89226 0.390617
993 5 0.00867435 0.841578 0.398958
89 1 0.160885 0.881956 0.356708
634 2 0.495195 0.894675 0.374444
84 3 0.258891 0.756379 0.368866
762 1 0.129595 0.980713 0.34653
416 1 0.0548937 0.906256 0.354803
6 5 0.0762128 0.816721 0.370189
519 2 0.112997 0.930073 0.35762
500 5 0.487428 0.983102 0.312548
750 5 0.323542 0.857849 0.344248
747 1 0.117174 0.939855 0.379152
9 1 0.486829 0.518647 0.376694
572 2 0.177802 0.52161 0.393058
1135 1 0.0900814 0.736438 0.39813
679 1 0.302789 0.915444 0.393454
815 2 0.142477 0.919255 0.397776
1186 1 0.486939 0.934965 0.358066
793 3 0.263062 0.997174 0.369557
1007 1 0.183883 0.597941 0.479693
12 5 0.0773924 0.736056 0.478311
1157 1 0.0973657 0.646561 0.469095
844 2 0.23807 0.749551 0.488431
531 1 0.226397 0.742505 0.427731
718 1 0.241097 0.64236 0.424427
620 2 0.199679 0.685592 0.432291
135 1 0.187768 0.671243 0.453122
479 1 0.464951 0.994902 0.424445
1058 1 0.142709 0.683188 0.423071
670 1 0.148733 0.573563 0.448379
444 1 0.155265 0.534936 0.412518
445 3 0.152705 0.518594 0.4345
994 5 0.0255369 0.560695 0.421618
637 1 0.161151 0.969411 0.409432
446 1 0.041189 0.689213 0.423501
1137 2 0.0933957 0.722597 0.418815
1169 2 0.154226 0.622887 0.462539
1083 1 0.325451 0.63449 0.474736
213 5 0.365281 0.539801 0.475667
1002 1 0.272625 0.515632 0.46798
1018 2 0.302864 0.643234 0.494361
349 1 0.262697 0.693533 0.496044
1197 2 0.449193 0.743147 0.467817
749 1 0.399122 0.699739 0.467503
554 5 0.443529 0.664908 0.494871
238 1 0.489208 0.548363 0.429261
501 5 0.468137 0.641342 0.425861
499 1 0.420639 0.719222 0.430933
528 1 0.411959 0.598129 0.45562
1049 3 0.452313 0.546391 0.448581
1031 1 0.336873 0.64835 0.440235
789 1 0.292737 0.554404 0.435293
562 1 0.331736 0.738331 0.410955
173 1 0.00100545 0.523796 0.451093
877 1 0.450293 0.994672 0.488807
847 1 0.324405 0.612604 0.406925
911 2 0.299004 0.614165 0.42671
740 2 0.273062 0.502741 0.446374
1038 2 0.370111 0.647505 0.45904
426 1 0.0619064 0.847509 0.470352
1087 1 0.12589 0.948022 0.481025
11 1 0.174912 0.749562 0.487919
167 5 0.143512 0.848591 0.486679
862 1 0.0107662 0.968591 0.539287
374 1 0.247037 0.897962 0.48708
949 5 0.00418737 0.884388 0.518958
705 2 0.239195 0.904872 0.44673
183 2 0.256346 0.889642 0.404893
603 1 0.244313 0.911518 0.424811
475 5 0.0352169 0.904526 0.424124
823 5 0.172068 0.778556 0.453056
180 5 0.0950169 0.862757 0.440301
35 1 0.101941 0.772644 0.431681
594 1 0.175722 0.917971 0.451579
988 2 0.130368 0.958265 0.459788
257 3 0.00277902 0.996479 0.493113
892 1 0.0729443 0.953254 0.449192
997 5 0.0264346 0.782536 0.44835
334 1 0.105608 0.874054 0.405977
941 1 0.350468 0.957928 0.481613
764 1 0.344714 0.826691 0.471924
881 1 0.266321 0.755199 0.469179
1015 3 0.282236 0.957513 0.480297
434 1 0.26044 0.800039 0.49893
294 1 0.435479 0.903036 0.473202
293 1 0.455401 0.765231 0.488682
952 2 0.430227 0.506823 0.580311
874 2 0.411872 0.961974 0.475156
252 1 0.00433859 0.93091 0.486669
140 1 0.39775 0.814611 0.420067
699 1 0.407948 0.915941 0.410935
958 3 0.401595 0.853478 0.462547
325 1 0.435818 0.796473 0.45753
277 1 0.479204 0.875437 0.433655
398 5 0.00864153 0.638783 0.452356
898 3 0.45072 0.963415 0.403144
356 2 0.416902 0.873763 0.427023
1034 1 0.374828 0.883819 0.443522
226 1 0.277503 0.946989 0.456745
138 1 0.330207 0.772482 0.442975
1156 3 0.264706 0.756753 0.40921
513 2 0.300371 0.801369 0.45926
980 5 0.347521 0.978936 0.434172
86 1 0.413735 0.992174 0.455768
144 2 0.371948 0.758104 0.426911
942 1 0.257494 0.844822 0.452024
1189 5 0.145767 0.673705 0.504508
549 1 0.0682768 0.66996 0.526681
1147 5 0.072529 0.600866 0.498248
665 2 0.0208542 0.712869 0.528053
657 1 0.173398 0.590977 0.517443
1112 3 0.208375 0.568382 0.498974
618 5 0.241851 0.519555 0.528116
655 5 0.228669 0.66029 0.532851
120 1 0.225417 0.61462 0.564066
910 5 0.127453 0.612001 0.545059
182 1 0.153663 0.540743 0.572129
39 1 0.06646 0.528145 0.538231
616 1 0.0149735 0.633961 0.576726
506 1 0.121797 0.633298 0.580291
1142 5 0.0558766 0.547683 0.569153
820 2 0.0662978 0.661894 0.585698
751 1 0.164751 0.716423 0.556413
145 1 0.0754542 0.721458 0.577069
1061 2 0.176928 0.597704 0.577906
307 2 0.365087 0.704414 0.524454
678 1 0.351028 0.662211 0.508231
568 5 0.352294 0.549218 0.516448
168 1 0.272558 0.590653 0.501727
386 1 0.264714 0.826011 0.407246
978 2 0.464249 0.52577 0.505156
283 1 0.393986 0.756687 0.516983
387 1 0.426751 0.570788 0.497134
581 1 0.41194 0.675863 0.53668
902 1 0.405917 0.677491 0.5703
181 1 0.424483 0.572075 0.57947
1170 2 0.439342 0.702383 0.554249
541 5 0.398873 0.584022 0.544517
281 1 0.305303 0.568162 0.546378
79 1 0.3152 0.712943 0.53711
1 1 0.321181 0.606213 0.579515
143 1 0.260916 0.519301 0.57294
1028 3 0.38717 0.627236 0.584903
534 2 0.281823 0.576529 0.565814
886 5 0.259778 0.702685 0.562568
490 5 0.122726 0.82406 0.527342
1050 1 0.0912967 0.902026 0.509669
474 1 0.167195 0.978167 0.512019
7 1 0.0156152 0.736588 0.50734
576 2 0.112546 0.95926 0.502171
545 2 0.223104 0.996058 0.521417
246 1 0.205951 0.863491 0.518095
702 1 0.0301721 0.761938 0.541262
841 5 0.2327 0.778288 0.536273
1116 1 0.219088 0.954537 0.596224
1141 1 0.230254 0.981195 0.542056
268 1 0.447431 0.513003 0.526392
262 1 0.162495 0.750934 0.589549
727 3 0.0824 0.869071 0.565719
860 2 0.0683197 0.977541 0.548829
451 5 0.171254 0.979871 0.56485
405 1 0.0895243 0.899104 0.586356
765 1 0.117212 0.808557 0.563937
399 5 0.195774 0.889157 0.548249
376 1 0.098921 0.922724 0.552052
482 1 0.0195804 0.853173 0.558412
170 1 0.00763509 0.982109 0.412743
567 2 0.130957 0.748959 0.57046
1011 2 0.256483 0.861949 0.505015
1184 1 0.313887 0.874508 0.513777
495 1 0.397708 0.938721 0.526519
1093 2 0.374227 0.880789 0.520328
41 1 0.274967 0.973892 0.511358
1113 1 0.493989 0.805928 0.519316
511 1 0.413417 0.851064 0.505991
83 2 0.43912 0.792267 0.507605
368 2 0.399386 0.820636 0.557242
414 1 0.456131 0.968478 0.555357
719 3 0.460884 0.959821 0.531413
1095 1 0.457343 0.786622 0.59087
315 1 0.430826 0.765915 0.55344
484 1 0.437676 0.869662 0.563514
450 2 0.430678 0.930147 0.570556
360 1 0.459666 0.932406 0.589662
731 1 0.353876 0.818906 0.572574
905 1 0.369429 0.945033 0.57576
1115 1 0.287732 0.759726 0.590699
310 5 0.306299 0.922919 0.551102
816 1 0.251368 0.823653 0.564887
221 2 0.293633 0.81639 0.581083
592 1 0.375469 0.845273 0.538695
1023 1 0.281729 0.865161 0.595451
234 3 0.357777 0.98897 0.59353
70 2 0.00670341 0.873225 0.476761
544 1 0.211487 0.597381 0.596501
685 2 0.021053 0.509428 0.524647
853 5 0.161099 0.803622 0.40513
342 5 0.136177 0.502135 0.519178
913 5 0.0869232 0.656734 0.667608
68 1 0.215281 0.566259 0.630802
852 2 0.243231 0.694937 0.664856
440 5 0.237089 0.696348 0.605761
329 1 0.221366 0.650747 0.650426
950 2 0.180892 0.601505 0.645062
710 1 0.221055 0.755262 0.658135
1123 1 0.348279 0.968018 0.6151
1166 1 0.228354 0.681187 0.684688
627 1 0.0499924 0.569764 0.666524
521 1 0.181212 0.848278 0.604499
1046 1 0.00529814 0.927241 0.604106
205 5 0.264171 0.964854 0.68133
819 1 0.0628974 0.648995 0.607787
1020 1 0.0192453 0.737073 0.639932
609 2 0.0801636 0.602065 0.622458
704 1 0.171638 0.56969 0.663541
891 1 0.100742 0.547011 0.61343
455 1 0.125096 0.621617 0.636181
955 1 0.0255225 0.585878 0.633748
437 5 0.27374 0.598191 0.68609
483 1 0.458053 0.539457 0.626844
1008 1 0.4267 0.735262 0.652669
104 5 0.278621 0.823417 0.68384
177 3 0.339603 0.841095 0.643679
1191 1 0.477495 0.75254 0.622944
1074 2 0.417621 0.553227 0.642772
106 1 0.448088 0.569638 0.660844
393 5 0.117754 0.582264 0.688811
119 1 0.389053 0.6441 0.607178
217 1 0.280492 0.813218 0.63556
125 1 0.308808 0.696573 0.662694
1125 2 0.252093 0.577772 0.613011
186 2 0.359172 0.727684 0.653007
923 1 0.290736 0.628337 0.618884
733 1 0.291601 0.529316 0.607106
927 1 0.349359 0.703083 0.632757
363 1 0.37209 0.596061 0.637861
129 2 0.351975 0.643585 0.62436
906 2 0.00500447 0.558819 0.651679
960 1 0.254633 0.891326 0.664616
937 3 0.219057 0.909394 0.647153
442 2 0.229144 0.891658 0.605253
1167 2 0.219412 0.793703 0.640891
588 1 0.19378 0.761812 0.623328
653 1 0.241154 0.912375 0.625672
1110 2 0.347319 0.967059 0.636808
80 1 0.179776 0.844725 0.643993
712 1 0.0959744 0.777665 0.615374
1067 2 0.155071 0.784511 0.607276
502 2 0.00985318 0.861019 0.649842
802 2 0.0349986 0.774902 0.622742
244 3 0.125644 0.89392 0.644753
324 1 0.163983 0.944166 0.653743
1124 2 0.07144 0.930167 0.604694
1003 1 0.0701198 0.877015 0.656599
1111 1 0.0831995 0.995166 0.602759
1014 1 0.404302 0.993941 0.643309
60 1 0.102286 0.909059 0.62282
1106 1 0.401188 0.818524 0.63391
1180 5 0.371486 0.736063 0.603175
338 1 0.492991 0.821645 0.649095
838 1 0.477685 0.96584 0.623174
491 2 0.450161 0.781539 0.639658
132 1 0.343476 0.790182 0.660188
908 1 0.342449 0.90877 0.644105
345 1 0.0171944 0.83553 0.63021
17 2 0.498749 0.751356 0.602295
459 1 0.00314554 0.712587 0.672142
867 5 0.394505 0.86051 0.600509
285 1 0.729282 0.166923 0.393437
725 1 0.637363 0.0676356 0.368844
464 1 0.701908 0.137969 0.349485
676 1 0.758275 0.360801 0.37973
1178 2 0.734062 0.214074 0.379658
1026 1 0.776715 0.202091 0.364629
1092 2 0.689605 0.0793743 0.356032
810 1 0.740629 0.0624592 0.367688
692 2 0.782162 0.376592 0.360161
1016 5 0.545845 0.11959 0.372262
321 1 0.538046 0.0260728 0.372592
934 1 0.526109 0.212344 0.365669
1148 2 0.600052 0.0231339 0.37925
757 1 0.540211 0.143985 0.339826
555 1 0.745984 0.404481 0.346026
328 2 0.544259 0.205156 0.344874
497 5 0.665968 0.421578 0.326498
614 1 0.979563 0.222018 0.360527
1073 2 0.804408 0.0548672 0.371603
745 3 0.903837 0.422201 0.361109
818 2 0.854786 0.11558 0.337388
1010 1 0.873297 0.280834 0.380494
330 1 0.904373 0.15504 0.343326
540 5 0.828622 0.177816 0.3902
957 1 0.940012 0.0259002 0.391557
992 5 0.973862 0.0665644 0.328376
288 2 0.93514 0.211067 0.34401
1068 1 0.802544 0.150463 0.333507
990 1 0.838351 0.0762576 0.354723
1163 1 0.817595 0.0842248 0.390813
107 1 0.878821 0.0732264 0.323644
585 3 0.751327 0.184241 0.343117
940 1 0.595364 0.330712 0.382859
688 1 0.713178 0.237695 0.33675
729 1 0.64641 0.318922 0.353516
16 2 0.661107 0.256364 0.350473
396 1 0.743133 0.464664 0.37637
254 2 0.678178 0.466724 0.377193
845 1 0.539875 0.00786953 0.336011
77 1 0.653552 0.40828 0.373538
1096 1 0.756445 0.264996 0.391415
984 1 0.678771 0.238109 0.371035
121 5 0.599522 0.0784872 0.326533
389 1 0.985938 0.218024 0.329221
267 1 0.60587 0.226683 0.343858
774 1 0.566689 0.397289 0.357509
1192 2 0.613875 0.363079 0.365525
822 5 0.614668 0.244396 0.393593
799 2 0.765864 0.324018 0.397581
436 1 0.910755 0.451274 0.340983
299 1 0.912623 0.351646 0.360187
1200 1 0.83251 0.417829 0.367515
261 1 0.891796 0.257711 0.345603
947 2 0.87113 0.300881 0.35976
686 2 0.992559 0.485451 0.381793
732 2 0.805775 0.462162 0.382147
341 1 0.939026 0.452867 0.378231
493 5 0.913075 0.115858 0.397582
1045 1 0.811365 0.321269 0.354384
1146 5 0.989724 0.256975 0.391627
649 1 0.660569 0.485902 0.39758
903 1 0.691293 0.0406127 0.338295
477 5 0.966354 0.379813 0.330647
385 5 0.788784 0.0188888 0.324353
428 1 0.615274 0.491265 0.33186
929 1 0.504964 0.24506 0.332415
1175 1 0.59966 0.146695 0.399002
1019 5 0.546339 0.114086 0.464841
1030 2 0.534453 0.242593 0.485435
146 1 0.577931 0.197365 0.480512
691 1 0.637009 0.122592 0.490692
713 1 0.656317 0.0227279 0.499857
613 2 0.639507 0.175289 0.477722
179 1 0.685588 0.211371 0.485145
469 5 0.741285 0.0327914 0.482551
783 1 0.687267 0.0541512 0.456324
2 1 0.631862 0.0950538 0.428332
454 1 0.646586 0.150421 0.457971
401 5 0.745565 0.210794 0.457749
128 5 0.601018 0.0179957 0.463769
489 1 0.729139 0.130006 0.437314
864 2 0.674041 0.106947 0.444846
795 5 0.673343 0.179519 0.419304
869 3 0.984936 0.278373 0.542408
3 2 0.590261 0.0957633 0.411056
30 1 0.528949 0.0979275 0.418678
693 5 0.771585 0.231864 0.49652
478 1 0.800399 0.118673 0.475617
682 5 0.95576 0.113895 0.492423
253 5 0.894784 0.0401353 0.468743
622 2 0.849411 0.161319 0.477604
394 1 0.990533 0.0372146 0.475127
116 1 0.861946 0.16716 0.498839
115 1 0.518955 0.227183 0.402081
199 5 0.874718 0.00873976 0.412609
683 1 0.999286 0.236785 0.456605
782 1 0.836236 0.220196 0.46968
944 1 0.646327 0.496101 0.599342
582 5 0.915866 0.188489 0.440016
1179 5 0.994755 0.118875 0.454936
522 5 0.79852 0.172738 0.420897
214 1 0.890288 0.247954 0.413657
829 1 0.901249 0.139424 0.467452
880 1 0.50376 0.419531 0.470942
95 5 0.782845 0.0588623 0.451518
801 1 0.565053 0.491087 0.548649
56 1 0.815962 0.380083 0.598365
466 1 0.512186 0.286154 0.471827
218 5 0.593143 0.358489 0.470476
1052 5 0.689027 0.306977 0.480403
1168 5 0.712266 0.433034 0.488227
546 2 0.611938 0.281736 0.438599
721 5 0.629596 0.38781 0.404908
593 3 0.652629 0.484794 0.453925
433 1 0.721434 0.33915 0.446158
312 1 0.665703 0.269908 0.427058
1004 2 0.751139 0.392081 0.45302
44 2 0.720673 0.303883 0.428732
57 1 0.629106 0.27435 0.459014
37 1 0.723054 0.343822 0.411584
669 1 0.706597 0.436935 0.457348
767 1 0.594064 0.468332 0.466065
586 1 0.595384 0.339805 0.431962
536 1 0.522858 0.453596 0.439721
1133 1 0.567641 0.237343 0.433359
863 2 0.532603 0.467163 0.460554
1091 1 0.78952 0.371757 0.469103
761 3 0.849803 0.36654 0.48081
476 5 0.914795 0.257003 0.481603
357 2 0.890493 0.481507 0.494689
263 1 0.899614 0.343283 0.467412
1138 1 0.953923 0.468465 0.491966
735 1 0.858549 0.434758 0.484488
636 1 0.862891 0.488154 0.431649
674 1 0.809418 0.451565 0.402957
64 2 0.805244 0.466458 0.424422
687 1 0.512695 0.0789166 0.492512
131 1 0.930976 0.3359 0.402987
1021 5 0.859187 0.285746 0.443919
1190 5 0.927764 0.432937 0.419999
1035 5 0.912151 0.44038 0.454997
103 1 0.787851 0.416492 0.437024
672 1 0.76965 0.263813 0.426728
1121 2 0.563095 0.139543 0.528799
1109 1 0.501147 0.152152 0.52318
164 1 0.591648 0.08656 0.519969
73 2 0.587911 0.261534 0.522568
58 1 0.695881 0.102803 0.519265
901 2 0.646732 0.0829683 0.507306
304 1 0.591337 0.196617 0.523768
1041 1 0.565989 0.133527 0.550045
936 1 0.719837 0.0415965 0.589668
1139 1 0.646646 0.101537 0.568323
53 1 0.688582 0.143293 0.596271
626 2 0.606027 0.151774 0.566221
210 5 0.739588 0.0476622 0.543026
339 2 0.699365 0.0974981 0.581349
43 5 0.701199 0.198648 0.535214
369 1 0.640346 0.203446 0.55973
971 1 0.685932 0.245995 0.590361
976 5 0.530905 0.336773 0.404504
830 1 0.574069 0.165479 0.584395
350 2 0.565733 0.0281759 0.58821
250 2 0.5266 0.189101 0.597196
1195 1 0.511535 0.0660374 0.586932
604 5 0.970608 0.259605 0.427543
1154 5 0.786122 0.111968 0.510519
515 5 0.882779 0.097556 0.523241
408 1 0.972738 0.124517 0.524632
384 5 0.894201 0.206559 0.525962
224 1 0.818699 0.0290797 0.520537
794 1 0.958021 0.000949987 0.511345
1198 1 0.813361 0.182229 0.550183
157 1 0.90314 0.0390108 0.581583
746 1 0.993277 0.158705 0.417436
1005 1 0.841575 0.083201 0.558628
332 1 0.972995 0.119647 0.561359
1187 2 0.880775 0.0316349 0.561688
809 2 0.985066 0.122244 0.583002
152 1 0.619986 0.371721 0.594346
118 2 0.808901 0.135324 0.564571
147 1 0.918556 0.0190806 0.544516
570 1 0.937258 0.151727 0.594273
200 2 0.997294 0.145703 0.542798
273 1 0.825021 0.160149 0.584435
228 1 0.748297 0.117728 0.568331
895 1 0.53575 0.397511 0.502901
427 2 0.5953 0.412654 0.510306
736 5 0.817933 0.0531416 0.596178
509 1 0.595518 0.399553 0.531564
878 1 0.562516 0.273517 0.502501
924 1 0.602893 0.477552 0.507178
612 1 0.747811 0.32576 0.51237
235 1 0.644173 0.289911 0.523759
279 1 0.644735 0.379552 0.502219
899 1 0.727467 0.493506 0.511632
948 3 0.68322 0.345923 0.5189
431 2 0.684924 0.473366 0.58253
379 2 0.720628 0.466222 0.531144
720 1 0.740284 0.261742 0.558862
890 1 0.732039 0.436477 0.591827
831 2 0.619491 0.377582 0.572549
98 1 0.731874 0.332313 0.582464
203 2 0.695743 0.283354 0.572276
716 1 0.706406 0.403762 0.530186
391 1 0.654853 0.431392 0.569423
351 1 0.646281 0.322771 0.56516
467 2 0.878475 0.299345 0.401197
557 2 0.511342 0.229456 0.423787
1119 3 0.549509 0.42533 0.546466
1056 1 0.543276 0.280852 0.537021
850 1 0.559716 0.387404 0.565829
1081 5 0.567264 0.268654 0.567873
336 1 0.876439 0.482671 0.515328
884 1 0.818799 0.279797 0.531543
843 5 0.925651 0.388467 0.519977
488 1 0.98697 0.29638 0.519968
825 2 0.809015 0.331108 0.519149
133 1 0.844169 0.338607 0.501388
18 1 0.790718 0.401489 0.565134
982 3 0.804666 0.251098 0.552022
1102 1 0.881099 0.44506 0.554302
769 1 0.844619 0.277432 0.569342
291 1 0.905157 0.351662 0.585359
1158 1 0.938395 0.25557 0.585272
623 1 0.981343 0.47378 0.572808
1100 2 0.820986 0.427873 0.547862
946 1 0.933703 0.307481 0.553592
770 1 0.517932 0.00350173 0.454744
742 2 0.905017 0.299057 0.572487
266 1 0.976312 0.473581 0.534565
529 1 0.821368 0.38238 0.532308
530 3 0.939283 0.482081 0.553548
737 2 0.765651 0.386483 0.584115
189 1 0.777308 0.472758 0.542003
1044 1 0.583983 0.00995316 0.568593
677 1 0.983721 0.209729 0.543573
1084 1 0.559669 0.494379 0.407851
498 1 0.998105 0.406656 0.599073
297 1 0.825927 0.333671 0.405224
1077 3 0.505421 0.48591 0.420271
840 1 0.602109 0.0423279 0.400104
930 2 0.502309 0.0186813 0.499175
172 1 0.670082 0.496183 0.540105
517 5 0.703676 0.0796545 0.401794
487 5 0.500529 0.0605994 0.55144
300 2 0.55637 0.203178 0.647398
1043 1 0.616984 0.213389 0.653547
788 1 0.717056 0.178977 0.655534
354 2 0.698636 0.201696 0.60485
441 2 0.638078 0.0290883 0.619238
748 1 0.672136 0.206748 0.624467
630 3 0.812076 0.000250248 0.644088
1152 1 0.678947 0.0641544 0.630796
122 5 0.64961 0.10891 0.657013
46 5 0.775063 0.012985 0.675631
656 2 0.678197 0.216908 0.645663
355 1 0.715299 0.386099 0.653148
539 1 0.534025 0.144568 0.647527
1025 1 0.524366 0.155243 0.615502
240 1 0.543314 0.249942 0.603105
601 1 0.527757 0.247246 0.636812
193 1 0.504195 0.436417 0.621436
430 5 0.790309 0.295435 0.605816
932 1 0.831321 0.0510845 0.655261
194 5 0.885378 0.0155074 0.698763
1182 5 0.886616 0.245088 0.666757
33 5 0.894846 0.113634 0.647208
383 1 0.950528 0.187446 0.650827
93 1 0.970354 0.219827 0.618799
481 1 0.585117 0.0164462 0.630932
666 1 0.869638 0.22124 0.608062
615 1 0.940861 0.0151828 0.644802
975 5 0.922614 0.0564658 0.614812
335 1 0.828505 0.126274 0.617562
292 2 0.822132 0.177303 0.605383
1151 1 0.763076 0.20553 0.607987
448 5 0.763628 0.0949705 0.636926
223 1 0.614275 0.411295 0.625357
933 2 0.634708 0.359879 0.614668
642 2 0.718201 0.442883 0.662718
527 1 0.695725 0.346089 0.620692
1140 2 0.994296 0.1827 0.635516
457 2 0.726335 0.33429 0.639208
771 1 0.701144 0.279163 0.646071
972 1 0.886716 0.451674 0.60399
1130 2 0.563037 0.445187 0.631993
641 1 0.555247 0.434872 0.652114
463 2 0.536511 0.289897 0.620003
1009 1 0.594865 0.313488 0.622075
507 2 0.931446 0.213292 0.601833
337 5 0.964801 0.429801 0.627915
471 1 0.674741 0.488641 0.65951
963 1 0.839916 0.42619 0.643576
1080 2 0.881708 0.389238 0.601131
65 1 0.891654 0.363795 0.621215
1132 2 0.824426 0.484034 0.651555
887 2 0.852484 0.361737 0.637565
675 1 0.77523 0.472275 0.663942
909 5 0.990122 0.402841 0.663033
569 1 0.793134 0.336982 0.636154
1040 1 0.883783 0.33573 0.65403
1104 1 0.994942 0.495825 0.648121
875 1 0.612717 0.0485988 0.600744