ITEM: TIMESTEP
200
ITEM: NUMBER OF ATOMS
1200
ITEM: BOX BOUNDS pp pp pp
-7.6266250050336382e-02 2.5098596345622489e+01
-7.6266250050336382e-02 2.5098596345622489e+01
-2.5251128845723162e+01 5.0273458941295317e+01
ITEM: ATOMS id type xs ys zs
904 5 0.0129943 0.34694 0.375653
1149 3 0.222393 0.091102 0.350932
419 1 0.234727 0.116347 0.372439
108 1 0.230641 0.0240969 0.352926
456 1 0.495847 0.330452 0.341282
1146 5 0.00824136 0.197392 0.399029
1173 1 0.0555287 0.279441 0.398213
1076 1 0.127085 0.10455 0.34263
1193 1 0.0575413 0.0737553 0.371114
580 5 0.145804 0.14578 0.372956
269 2 0.0195316 0.216955 0.358086
638 5 0.142698 0.197726 0.319115
390 2 0.0711816 0.0628854 0.391896
645 3 0.0894221 0.0572371 0.351729
967 1 0.0673873 0.191481 0.369465
690 3 0.487858 0.390173 0.35133
26 5 0.24227 0.440887 0.317899
542 1 0.138898 0.0642884 0.391211
935 2 0.417333 0.242635 0.342269
787 1 0.388917 0.189676 0.348504
121 5 0.473895 0.122653 0.328074
314 1 0.44714 0.180538 0.383667
590 2 0.478476 0.237144 0.381465
577 2 0.0990186 0.472549 0.352396
460 1 0.324907 0.463343 0.353138
559 1 0.43208 0.033458 0.356946
1053 1 0.287403 0.353214 0.339492
973 5 0.301327 0.150441 0.356686
290 1 0.347339 0.190882 0.393972
468 2 0.39578 0.148481 0.391354
1174 1 0.248733 0.127759 0.33483
1037 1 0.381131 0.0983064 0.379439
432 5 0.221385 0.203786 0.386499
196 2 0.391509 0.0365396 0.373543
82 1 0.187062 0.30119 0.347146
346 2 0.239429 0.334697 0.35315
477 5 0.0145956 0.358466 0.331108
1059 1 0.0309225 0.429987 0.396261
40 5 0.117004 0.270077 0.363623
686 2 0.00353755 0.472037 0.383931
813 1 0.0376171 0.478401 0.364886
403 5 0.154918 0.359249 0.38959
465 1 0.332923 0.0109394 0.370615
1071 1 0.222743 0.375753 0.368698
834 1 0.180747 0.470025 0.394568
418 1 0.0304975 0.281044 0.352151
624 3 0.499544 0.00769642 0.35787
703 2 0.388654 0.472827 0.354551
241 1 0.428104 0.279956 0.376104
929 1 0.475947 0.232436 0.334649
373 1 0.407081 0.475826 0.375216
1171 1 0.428682 0.431409 0.344728
409 1 0.463751 0.375727 0.373661
1159 2 0.412974 0.342755 0.378955
412 2 0.337182 0.329635 0.353008
628 1 0.378275 0.291785 0.343572
660 1 0.290654 0.299833 0.363631
151 1 0.363281 0.364713 0.368586
893 5 0.339007 0.281287 0.390238
565 5 0.297584 0.430632 0.382163
907 1 0.412938 0.00569149 0.391524
635 5 0.32823 0.117949 0.324291
915 1 0.119045 0.427609 0.343821
296 1 0.0575994 0.00834485 0.499765
397 2 0.031911 0.222777 0.471195
885 5 0.175572 0.203402 0.478218
1185 5 0.0706965 0.102717 0.488893
88 1 0.0110536 0.167345 0.479004
28 1 0.206474 0.10748 0.490142
62 5 0.245093 0.0335198 0.443418
953 5 0.0866458 0.0147803 0.429658
20 1 0.15738 0.0107921 0.453936
1060 5 0.169005 0.20913 0.442602
137 5 0.165127 0.104528 0.449244
377 2 0.0562875 0.149418 0.423689
537 1 0.215726 0.0759219 0.414652
15 5 0.0580913 0.04055 0.459924
353 1 0.0878697 0.205058 0.421101
1017 1 0.0940927 0.218611 0.466719
1024 1 0.0780262 0.110537 0.43961
472 1 0.259582 0.0248237 0.475521
75 1 0.310976 0.103006 0.492294
375 2 0.258577 0.0861352 0.479504
206 1 0.252537 0.232317 0.492921
407 1 0.4865 0.218683 0.498414
985 5 0.346584 0.497961 0.416499
247 5 0.401815 0.101795 0.472649
378 2 0.460203 0.0229753 0.444572
516 1 0.443401 0.0887814 0.443672
406 1 0.472768 0.193045 0.430533
91 1 0.415296 0.129389 0.411426
557 2 0.498403 0.249853 0.423031
920 2 0.458215 0.130386 0.427734
211 5 0.321852 0.0191795 0.406977
858 1 0.268115 0.182399 0.434622
443 2 0.304901 0.137571 0.444099
14 1 0.318043 0.0869425 0.432026
322 5 0.375895 0.219723 0.424477
968 1 0.26693 0.11806 0.461181
268 1 0.461038 0.493854 0.526987
72 1 0.354791 0.169751 0.451615
32 5 0.316331 0.239777 0.466756
364 1 0.00645738 0.368001 0.497008
779 5 0.163678 0.451138 0.466659
871 3 0.0111822 0.439159 0.492511
242 1 0.0174093 0.265869 0.488095
754 1 0.0316674 0.459622 0.472052
78 5 0.129742 0.305921 0.479915
34 1 0.256636 0.420379 0.479695
1099 1 0.3868 0.38438 0.566988
663 1 0.104986 0.368418 0.456644
188 5 0.237643 0.342302 0.403512
1079 5 0.232803 0.441811 0.419773
991 5 0.341455 0.104501 0.596638
435 1 0.189932 0.311619 0.452033
392 1 0.00161147 0.442935 0.438431
591 5 0.0248145 0.352463 0.423516
827 1 0.105907 0.302961 0.429426
689 2 0.142956 0.344145 0.441893
722 1 0.0957241 0.494538 0.444297
1128 2 0.0346872 0.482934 0.451575
249 2 0.100776 0.263763 0.412949
265 1 0.16992 0.38641 0.429076
741 5 0.103142 0.447594 0.415247
344 1 0.428553 0.377529 0.598925
533 1 0.156639 0.265937 0.402301
1078 1 0.377558 0.407217 0.470925
564 2 0.376351 0.36427 0.487843
139 5 0.250202 0.321987 0.48485
547 1 0.326694 0.477086 0.49753
561 1 0.369675 0.307102 0.478753
256 2 0.271993 0.479262 0.486572
447 2 0.489675 0.409936 0.489928
4 1 0.440435 0.370891 0.49517
204 1 0.462583 0.469639 0.493519
851 1 0.411849 0.487915 0.450776
608 1 0.467426 0.47853 0.405473
812 2 0.39287 0.348332 0.583962
1070 2 0.188754 0.0354436 0.401538
696 5 0.435356 0.255369 0.456921
996 1 0.459171 0.296163 0.42961
102 5 0.494373 0.365051 0.44714
382 5 0.247999 0.271253 0.425988
1039 5 0.269298 0.367229 0.449457
109 1 0.334145 0.307691 0.422534
694 1 0.314775 0.458349 0.447883
494 2 0.367937 0.362614 0.41773
308 1 0.391595 0.395344 0.43527
633 1 0.319884 0.40269 0.410611
410 2 0.376257 0.4346 0.451281
550 1 0.1299 0.103102 0.515033
574 5 0.0484409 0.173046 0.505982
1155 1 0.129679 0.22105 0.505385
520 2 0.192117 0.10807 0.511658
811 1 0.220949 0.0571033 0.521864
643 1 0.217467 0.164136 0.518695
785 1 0.097201 0.0770954 0.57952
857 1 0.194741 0.0515416 0.576417
69 2 0.214953 0.187506 0.595259
114 2 0.241301 0.0216368 0.587923
760 1 0.0609245 0.113135 0.405726
1089 1 0.00565843 0.0736301 0.593342
1006 1 0.0553298 0.15189 0.536821
738 3 0.0864271 0.219919 0.590906
647 2 0.154065 0.100018 0.572363
192 1 0.153535 0.113586 0.551328
632 1 0.0369522 0.169372 0.586383
897 2 0.051799 0.0348229 0.585545
826 3 0.101271 0.0999154 0.535237
680 1 0.0788487 0.0384972 0.542012
548 1 0.16858 0.146223 0.587184
803 5 0.201227 0.197791 0.550508
219 1 0.119365 0.22883 0.569219
23 1 0.356629 0.0805537 0.522628
298 2 0.257647 0.210804 0.513233
101 1 0.315278 0.179076 0.513951
854 2 0.347489 0.126039 0.508211
1118 1 0.285591 0.430698 0.595788
470 2 0.45439 0.180662 0.511984
413 1 0.431772 0.221472 0.527459
684 1 0.480402 0.0178306 0.518699
833 1 0.404966 0.149806 0.502216
930 2 0.493814 0.0266152 0.497077
81 1 0.412245 0.0341703 0.581179
961 2 0.451938 0.0828342 0.585704
900 3 0.418832 0.230192 0.587897
945 5 0.482688 0.195155 0.553037
42 1 0.48265 0.202563 0.587399
1057 1 0.297379 0.25394 0.559203
1161 1 0.456162 0.112428 0.566537
1066 5 0.395338 0.144942 0.545427
596 1 0.305104 0.153596 0.550539
1199 2 0.310848 0.193744 0.566555
10 1 0.263515 0.183399 0.58103
220 1 0.302905 0.0252357 0.580392
646 5 0.281804 0.0583516 0.545564
837 5 0.382076 0.0376779 0.547946
438 1 0.366344 0.199513 0.576512
1001 2 0.132843 0.27858 0.515764
92 1 0.0757805 0.307445 0.512791
916 1 0.0466456 0.470291 0.508617
1194 5 0.308922 0.433498 0.562349
342 5 0.145806 0.489205 0.518343
605 1 0.179996 0.314699 0.50715
424 2 0.01531 0.307342 0.504262
798 5 0.199648 0.406645 0.509291
558 5 0.249172 0.336558 0.59545
317 3 0.227406 0.464516 0.584649
611 1 0.234317 0.336488 0.551647
215 1 0.202543 0.417603 0.569942
367 5 0.0662121 0.391714 0.52734
105 2 0.279029 0.296031 0.544273
366 1 0.048151 0.291491 0.550642
130 5 0.0174192 0.358389 0.576784
759 1 0.138147 0.332279 0.563604
231 2 0.109639 0.278839 0.555978
153 1 0.140127 0.264835 0.537689
786 2 0.00808821 0.463823 0.593794
518 1 0.0683151 0.285232 0.594289
127 1 0.153616 0.399982 0.53835
352 1 0.0737155 0.470827 0.59588
174 2 0.18295 0.374465 0.55577
439 5 0.105103 0.468214 0.559664
100 2 0.333335 0.387259 0.525804
922 5 0.369816 0.261942 0.505773
977 1 0.259932 0.257544 0.527852
535 1 0.279439 0.423343 0.529055
966 1 0.386959 0.417772 0.532126
1013 1 0.339641 0.362531 0.505538
372 1 0.342416 0.327573 0.594797
227 1 0.429855 0.294441 0.579741
96 1 0.0483604 0.00999157 0.4009
652 5 0.408722 0.29382 0.548699
115 1 0.497053 0.252897 0.401232
784 2 0.432951 0.452194 0.541565
861 1 0.478918 0.476684 0.582903
706 1 0.409978 0.490884 0.557098
303 1 0.481637 0.414237 0.547691
340 1 0.371275 0.48961 0.590627
1105 1 0.329097 0.330492 0.537061
395 5 0.354536 0.00338482 0.508211
309 5 0.286605 0.120134 0.40078
943 5 0.479694 0.32176 0.521246
1117 5 0.15054 0.339685 0.594824
479 1 0.463409 0.00128417 0.424656
551 1 0.200908 0.249634 0.598746
556 1 0.179222 0.477868 0.599667
998 1 0.403679 0.352751 0.400083
1000 1 0.335454 0.40897 0.656884
123 1 0.241213 0.231055 0.635407
610 1 0.244941 0.159399 0.612398
1094 2 0.240387 0.0582536 0.630285
162 1 0.0236248 0.129179 0.630239
415 1 0.429324 0.106462 0.604428
142 1 0.120072 0.0701869 0.663425
71 2 0.378875 0.425911 0.641915
1085 2 0.121922 0.495887 0.608127
711 5 0.0874444 0.111547 0.608789
700 1 0.126999 0.166346 0.644578
359 1 0.174248 0.0620822 0.629651
1126 1 0.110726 0.207357 0.614388
47 2 0.105921 0.220574 0.636502
94 1 0.0436578 0.225204 0.641511
230 2 0.134698 0.0997758 0.644924
1072 1 0.436972 0.152148 0.637247
753 1 0.490975 0.0554254 0.631585
999 1 0.400183 0.244206 0.645143
31 5 0.302364 0.260708 0.610258
931 1 0.285935 0.0156666 0.636072
209 1 0.407259 0.224387 0.611671
1014 1 0.399833 0.00839801 0.639875
205 5 0.379821 0.068089 0.671009
255 1 0.332692 0.175479 0.632422
986 1 0.248222 0.0496184 0.607123
202 5 0.350429 0.318182 0.637753
365 1 0.248688 0.110885 0.642293
111 2 0.393346 0.197517 0.631129
651 2 0.268566 0.172731 0.632114
458 1 0.147298 0.270745 0.639435
51 1 0.207832 0.446978 0.644273
343 1 0.254905 0.326956 0.626933
1114 2 0.205804 0.29014 0.633217
1145 1 0.102111 0.40474 0.653131
1183 5 0.0663385 0.32656 0.663846
870 1 0.160012 0.366908 0.627469
136 5 0.0160631 0.320608 0.616269
956 1 0.357309 0.444825 0.622087
1042 2 0.492705 0.119699 0.631687
38 3 0.496151 0.486486 0.603721
631 1 0.119112 0.462981 0.627062
1069 2 0.150742 0.420036 0.639657
1150 1 0.422515 0.380251 0.636168
639 5 0.272482 0.411869 0.626377
525 2 0.461395 0.367977 0.617954
337 5 0.013299 0.470987 0.627267
54 1 0.423887 0.471904 0.648026
607 2 0.326061 0.475042 0.605753
370 1 0.124437 0.531225 0.353154
914 1 0.489308 0.921256 0.395394
388 1 0.245197 0.729438 0.386503
1136 1 0.233887 0.709237 0.344428
232 1 0.0104061 0.606503 0.360211
429 5 0.256573 0.644713 0.37049
739 5 0.170339 0.670359 0.393725
1101 1 0.19444 0.564616 0.380487
763 1 0.135202 0.75637 0.344785
404 1 0.333225 0.793612 0.370646
708 1 0.158994 0.658747 0.360599
634 2 0.494997 0.890259 0.377402
85 1 0.0860004 0.582444 0.383579
839 2 0.170746 0.712953 0.354191
212 2 0.0195897 0.591781 0.380699
1144 3 0.139342 0.585648 0.366963
422 5 0.0413298 0.704761 0.367848
919 1 0.404734 0.556871 0.392271
598 1 0.41544 0.652569 0.383815
1033 1 0.39568 0.635655 0.33768
697 5 0.365152 0.918049 0.371636
572 2 0.197826 0.52994 0.398462
918 1 0.398868 0.534908 0.347043
917 2 0.446408 0.507304 0.387821
715 2 0.424588 0.591361 0.349141
532 1 0.00333598 0.786923 0.378896
176 5 0.361859 0.712206 0.359301
579 1 0.331326 0.59918 0.373357
124 2 0.370205 0.610761 0.389058
668 5 0.275973 0.520331 0.374044
807 5 0.317489 0.595238 0.327928
1122 1 0.27055 0.914858 0.366221
1088 2 0.212579 0.888761 0.36794
286 1 0.223762 0.828359 0.365257
797 1 0.198036 0.896505 0.390768
793 3 0.270565 0.984756 0.370139
89 1 0.165616 0.914627 0.356333
921 5 0.0590679 0.90503 0.319238
84 3 0.271761 0.794037 0.377916
762 1 0.103503 0.993842 0.346726
416 1 0.0574252 0.903772 0.358361
6 5 0.0919292 0.812806 0.369935
519 2 0.106243 0.94327 0.360546
815 2 0.138521 0.938496 0.399894
750 5 0.301537 0.762893 0.318544
747 1 0.115904 0.960372 0.381291
734 5 0.428345 0.759215 0.386249
500 5 0.45404 0.849725 0.338557
1186 1 0.496477 0.938808 0.362205
758 1 0.442167 0.852684 0.373648
1064 1 0.487002 0.588507 0.353826
1135 1 0.100385 0.73054 0.398736
52 5 0.360178 0.848198 0.392189
804 1 0.22533 0.999946 0.387421
510 1 0.000239375 0.634905 0.395219
1007 1 0.184704 0.611819 0.483059
12 5 0.0821306 0.743143 0.482309
1157 1 0.0983486 0.658101 0.47249
844 2 0.241668 0.747075 0.48823
531 1 0.225323 0.7342 0.42414
718 1 0.242648 0.636739 0.42806
620 2 0.199344 0.682394 0.434271
135 1 0.192578 0.681484 0.455572
398 5 0.00175991 0.648335 0.459558
1058 1 0.142397 0.677309 0.42459
670 1 0.146466 0.586038 0.451848
444 1 0.162239 0.54554 0.416174
445 3 0.155325 0.529674 0.438803
994 5 0.0789741 0.592405 0.424876
637 1 0.160072 0.986462 0.411744
446 1 0.0374725 0.686065 0.423497
1137 2 0.0925833 0.714479 0.419365
1169 2 0.154751 0.636412 0.465331
1083 1 0.333726 0.641006 0.47702
213 5 0.385367 0.535116 0.48011
1002 1 0.280822 0.523017 0.470197
1018 2 0.305854 0.64231 0.49693
349 1 0.263478 0.690341 0.497447
1197 2 0.453516 0.747911 0.468632
749 1 0.404234 0.705918 0.464963
554 5 0.438085 0.65356 0.492093
238 1 0.476845 0.560942 0.431511
501 5 0.437322 0.628013 0.415012
499 1 0.42054 0.712396 0.425256
528 1 0.415346 0.603262 0.458039
1049 3 0.449586 0.545315 0.451462
1031 1 0.334646 0.657177 0.441447
789 1 0.308023 0.560541 0.438813
562 1 0.336699 0.744409 0.409692
575 1 0.256436 0.530445 0.407429
679 1 0.298757 0.920778 0.401684
847 1 0.336169 0.620091 0.408655
911 2 0.303638 0.616095 0.427625
740 2 0.277579 0.510908 0.448998
1038 2 0.372006 0.651746 0.459464
426 1 0.0587851 0.83827 0.473312
1087 1 0.131951 0.951272 0.482632
11 1 0.176338 0.75075 0.487407
167 5 0.144791 0.850941 0.48839
70 2 0.00369903 0.870301 0.478381
374 1 0.241567 0.890015 0.483932
853 5 0.167128 0.817141 0.417436
705 2 0.230731 0.893281 0.447279
183 2 0.247914 0.883719 0.405527
603 1 0.22167 0.890623 0.425028
475 5 0.0153256 0.895778 0.428743
823 5 0.165296 0.772822 0.456046
180 5 0.0894363 0.859709 0.44366
35 1 0.0958077 0.769184 0.431351
594 1 0.170914 0.904759 0.453505
988 2 0.134214 0.953884 0.461143
993 5 0.0218255 0.82269 0.40812
892 1 0.0753654 0.946371 0.454319
997 5 0.0237803 0.759727 0.449759
334 1 0.105115 0.892782 0.409327
941 1 0.343511 0.951082 0.480301
764 1 0.344463 0.820377 0.473144
881 1 0.271535 0.748519 0.469689
1015 3 0.272899 0.957114 0.478714
434 1 0.257604 0.799736 0.500191
294 1 0.435227 0.906166 0.474876
293 1 0.451149 0.761599 0.489746
952 2 0.420789 0.501609 0.577674
874 2 0.405252 0.962662 0.474664
173 1 0.00418152 0.541585 0.452402
140 1 0.407924 0.813929 0.419177
699 1 0.402238 0.918274 0.414015
958 3 0.402239 0.851164 0.465276
325 1 0.443478 0.80076 0.457048
277 1 0.483846 0.878245 0.43082
361 5 0.0137154 0.605675 0.542672
898 3 0.447514 0.964007 0.405946
356 2 0.421007 0.872234 0.42804
1034 1 0.383501 0.877342 0.445001
226 1 0.270376 0.941384 0.453077
138 1 0.340454 0.773104 0.442549
1156 3 0.268172 0.7532 0.407195
513 2 0.304015 0.793292 0.459008
980 5 0.346428 0.975794 0.433598
86 1 0.412089 0.994055 0.45591
144 2 0.378435 0.760819 0.425624
942 1 0.258475 0.832542 0.45021
1189 5 0.139765 0.679293 0.503716
549 1 0.0720082 0.680011 0.52778
1147 5 0.067393 0.608148 0.503392
665 2 0.0210424 0.718191 0.529381
657 1 0.175338 0.580867 0.518089
1112 3 0.21195 0.569413 0.499795
618 5 0.24615 0.514485 0.532062
655 5 0.234334 0.671551 0.529694
120 1 0.23437 0.604352 0.565078
910 5 0.125839 0.60431 0.54561
182 1 0.155701 0.543167 0.569606
39 1 0.0644284 0.522945 0.538588
616 1 0.039606 0.642344 0.569983
506 1 0.144623 0.644339 0.578415
1142 5 0.0542377 0.544165 0.570584
820 2 0.0836449 0.670017 0.581546
751 1 0.168758 0.731714 0.551763
145 1 0.0875664 0.731036 0.574801
1061 2 0.185265 0.590839 0.579482
307 2 0.368862 0.695274 0.527377
678 1 0.352686 0.660228 0.510549
568 5 0.350703 0.542776 0.519293
168 1 0.276351 0.588192 0.502792
386 1 0.262865 0.819502 0.400254
978 2 0.470931 0.519829 0.507049
283 1 0.400979 0.746185 0.519487
387 1 0.431321 0.568084 0.505162
581 1 0.414909 0.668453 0.540967
902 1 0.406768 0.670059 0.57452
181 1 0.439846 0.566759 0.578438
1170 2 0.436738 0.699921 0.558898
541 5 0.422175 0.577375 0.54551
281 1 0.320266 0.567227 0.546962
79 1 0.31596 0.709069 0.538133
1 1 0.332915 0.590906 0.580668
143 1 0.261521 0.511764 0.572204
1028 3 0.396035 0.613345 0.586905
534 2 0.289587 0.567952 0.566305
886 5 0.257389 0.702866 0.564488
490 5 0.120214 0.826734 0.522947
1050 1 0.0794281 0.905559 0.508448
474 1 0.14869 0.982129 0.516034
7 1 0.0108946 0.742613 0.509379
576 2 0.103781 0.961783 0.502065
545 2 0.212935 0.990994 0.520561
246 1 0.202639 0.874858 0.516377
702 1 0.0305687 0.768934 0.542204
841 5 0.243047 0.773205 0.534526
1116 1 0.222688 0.958643 0.589529
1141 1 0.231035 0.970671 0.539958
45 1 0.218116 0.500974 0.496362
262 1 0.177569 0.761425 0.586237
727 3 0.0833683 0.872701 0.566158
860 2 0.0496607 0.983243 0.549567
451 5 0.1643 0.966234 0.563533
405 1 0.100082 0.914521 0.584354
765 1 0.123789 0.818738 0.562839
399 5 0.186624 0.876705 0.54685
376 1 0.087998 0.930966 0.550662
482 1 0.0171152 0.853751 0.564257
208 1 0.215832 0.500229 0.445143
567 2 0.141798 0.76002 0.568368
1011 2 0.253291 0.865457 0.503104
1184 1 0.310818 0.88305 0.510816
495 1 0.397122 0.931996 0.524274
1093 2 0.369469 0.876349 0.518842
41 1 0.251445 0.972454 0.503851
1113 1 0.488367 0.806963 0.521292
511 1 0.408453 0.843328 0.504921
83 2 0.438754 0.787381 0.508425
368 2 0.395805 0.821253 0.554485
414 1 0.454848 0.96884 0.552299
719 3 0.458252 0.959489 0.529092
1095 1 0.468867 0.764123 0.590491
315 1 0.422061 0.762252 0.556683
484 1 0.440027 0.867386 0.558089
450 2 0.435442 0.925613 0.566521
360 1 0.456335 0.926392 0.588077
731 1 0.351479 0.830604 0.570074
905 1 0.373226 0.939004 0.570528
1115 1 0.293265 0.761029 0.586678
310 5 0.289472 0.903143 0.5471
816 1 0.251384 0.830336 0.563176
221 2 0.292552 0.820721 0.578516
592 1 0.366362 0.837647 0.535911
1023 1 0.284486 0.869264 0.593239
234 3 0.362407 0.992191 0.586177
640 1 0.0316158 0.999316 0.569625
544 1 0.21551 0.590869 0.599024
685 2 0.0174386 0.505002 0.524481
877 1 0.437288 0.999371 0.488932
913 5 0.0318557 0.734561 0.674121
68 1 0.221831 0.574324 0.63595
852 2 0.238304 0.711318 0.6683
440 5 0.250533 0.698093 0.604491
329 1 0.215451 0.654677 0.656448
950 2 0.174468 0.609826 0.647951
710 1 0.205686 0.757798 0.657562
1123 1 0.354954 0.992138 0.60934
1166 1 0.21673 0.710116 0.688351
627 1 0.0246047 0.6444 0.66367
521 1 0.187009 0.855733 0.601363
724 5 0.495931 0.665343 0.666643
1104 1 2.58212e-05 0.532246 0.654939
819 1 0.0665799 0.652945 0.603408
1020 1 0.0402819 0.748841 0.638939
609 2 0.0854386 0.61514 0.621388
704 1 0.133724 0.577198 0.661118
891 1 0.106997 0.55781 0.612798
455 1 0.135711 0.631761 0.632282
955 1 0.0330322 0.597774 0.631674
437 5 0.112678 0.690127 0.672119
906 2 0.00121772 0.598235 0.650896
1008 1 0.41353 0.736056 0.655884
104 5 0.226047 0.973118 0.694432
1131 5 0.0669433 0.986225 0.659449
1191 1 0.474586 0.752846 0.625646
1074 2 0.459086 0.521146 0.642334
106 1 0.450073 0.576177 0.652343
282 5 0.482933 0.619786 0.624912
119 1 0.398237 0.6324 0.607907
217 1 0.275371 0.824221 0.642345
125 1 0.305254 0.715041 0.665168
1125 2 0.253264 0.575824 0.616998
186 2 0.360674 0.700163 0.658171
923 1 0.301299 0.621672 0.618475
733 1 0.281229 0.521122 0.610514
927 1 0.362034 0.663698 0.64077
363 1 0.366733 0.557699 0.631071
129 2 0.365277 0.618876 0.624924
1180 5 0.377831 0.741529 0.600596
960 1 0.279721 0.948774 0.663491
937 3 0.24743 0.954836 0.642526
442 2 0.231736 0.90278 0.600852
1167 2 0.215055 0.799215 0.642229
588 1 0.203918 0.769256 0.622158
653 1 0.245698 0.920487 0.621266
1110 2 0.344591 0.983487 0.630342
80 1 0.173117 0.849279 0.641604
712 1 0.109219 0.786275 0.610061
1067 2 0.172084 0.794583 0.604687
345 1 0.0362959 0.841307 0.626545
802 2 0.0509183 0.782399 0.619857
244 3 0.13733 0.910258 0.642
324 1 0.180156 0.964172 0.646042
1124 2 0.0764786 0.931818 0.603244
1003 1 0.0785267 0.896162 0.655258
236 1 0.0119925 0.759961 0.605025
502 2 0.0250921 0.873843 0.645127
60 1 0.110981 0.921488 0.620851
1106 1 0.381392 0.805247 0.628008
1176 5 0.450654 0.885167 0.676723
338 1 0.471756 0.834279 0.644649
838 1 0.475579 0.950671 0.622927
491 2 0.43457 0.786835 0.63868
1086 1 0.496639 0.976622 0.653951
867 5 0.384077 0.871841 0.600206
1046 1 0.0118116 0.914496 0.601044
132 1 0.380189 0.843371 0.659866
177 3 0.33736 0.855035 0.642812
908 1 0.34635 0.921058 0.634497
1103 2 0.464074 0.999236 0.636798
483 1 0.469772 0.525336 0.620377
1111 1 0.0726762 0.998247 0.601966
50 5 0.273725 0.504915 0.664462
285 1 0.680384 0.172504 0.384678
725 1 0.634601 0.0566584 0.370632
464 1 0.697363 0.0935316 0.342069
676 1 0.75486 0.355179 0.370004
1178 2 0.699787 0.21681 0.370931
1026 1 0.725697 0.189745 0.353363
1092 2 0.689566 0.0556436 0.359528
810 1 0.734846 0.0684317 0.373482
692 2 0.796219 0.374845 0.354679
1016 5 0.607478 0.14223 0.36262
321 1 0.529225 0.0393154 0.376859
934 1 0.517778 0.2405 0.364786
1148 2 0.590342 0.0281881 0.383079
757 1 0.553874 0.174009 0.34122
555 1 0.774739 0.427882 0.345918
328 2 0.534914 0.237239 0.343333
497 5 0.768994 0.313383 0.314591
614 1 0.966218 0.209154 0.369956
1073 2 0.798081 0.0539631 0.377647
745 3 0.91546 0.413553 0.360113
818 2 0.853404 0.105998 0.340951
1010 1 0.872948 0.283183 0.374291
330 1 0.890145 0.146932 0.35576
540 5 0.811452 0.187869 0.371087
957 1 0.94741 0.0257338 0.394465
992 5 0.955865 0.0602337 0.359853
288 2 0.930713 0.194008 0.353508
1068 1 0.804244 0.146068 0.334908
990 1 0.827941 0.0720227 0.358501
1163 1 0.813496 0.0924235 0.394276
107 1 0.891856 0.0893747 0.326266
585 3 0.728848 0.149763 0.336408
940 1 0.579366 0.360134 0.383443
688 1 0.689379 0.298727 0.332654
729 1 0.631481 0.356108 0.355526
16 2 0.640154 0.299771 0.347228
396 1 0.753419 0.472404 0.382047
254 2 0.692005 0.487515 0.378075
845 1 0.533637 0.0178535 0.339588
77 1 0.650767 0.437371 0.376245
1096 1 0.747026 0.253388 0.380695
984 1 0.654309 0.253864 0.363139
428 1 0.648917 0.474497 0.335116
389 1 0.996368 0.189276 0.341624
267 1 0.587765 0.270781 0.338193
774 1 0.548914 0.422259 0.358975
1192 2 0.599472 0.397871 0.367657
822 5 0.583288 0.274895 0.386634
799 2 0.756565 0.31737 0.387506
436 1 0.930421 0.455105 0.344167
299 1 0.92352 0.348756 0.353212
1200 1 0.844575 0.406437 0.370062
261 1 0.906151 0.244567 0.344018
947 2 0.880147 0.300233 0.353849
467 2 0.876158 0.288367 0.395948
732 2 0.818564 0.459707 0.381144
341 1 0.945804 0.437053 0.380444
297 1 0.816756 0.319864 0.397199
1045 1 0.827943 0.324546 0.346212
1019 5 0.530644 0.120653 0.462939
1030 2 0.534985 0.253503 0.489633
146 1 0.572425 0.206763 0.480689
691 1 0.631091 0.121527 0.488267
713 1 0.646135 0.0197192 0.494539
613 2 0.633028 0.182284 0.479092
179 1 0.676594 0.216704 0.490368
469 5 0.716908 0.0440457 0.474247
783 1 0.670692 0.0663153 0.44704
2 1 0.615404 0.128531 0.427978
454 1 0.646174 0.17009 0.458437
401 5 0.73043 0.22381 0.454937
128 5 0.611016 0.0150083 0.46109
489 1 0.717475 0.149744 0.431889
864 2 0.663416 0.130483 0.441934
795 5 0.645881 0.19835 0.410669
770 1 0.510692 0.0220053 0.458089
3 2 0.572535 0.116758 0.411511
30 1 0.516614 0.1049 0.421089
693 5 0.772129 0.24068 0.496015
478 1 0.777126 0.122369 0.472405
682 5 0.934166 0.107522 0.49246
253 5 0.880657 0.0513724 0.463006
622 2 0.82917 0.161787 0.473582
394 1 0.974944 0.0345308 0.473826
116 1 0.847811 0.156868 0.494249
507 2 0.94004 0.212566 0.599094
199 5 0.866634 0.0169746 0.409735
683 1 0.996726 0.244204 0.454557
782 1 0.818855 0.222572 0.467942
746 1 0.99356 0.163243 0.4249
582 5 0.917385 0.198998 0.438104
1179 5 0.980053 0.113384 0.455594
522 5 0.813729 0.175865 0.431094
214 1 0.881146 0.232265 0.405498
829 1 0.876194 0.140087 0.460339
493 5 0.931038 0.124976 0.401668
95 5 0.768014 0.0725392 0.436969
517 5 0.755953 0.15467 0.402204
880 1 0.511835 0.419266 0.469889
466 1 0.517422 0.298636 0.476051
218 5 0.590686 0.363699 0.469645
1052 5 0.692463 0.31064 0.483739
1168 5 0.719065 0.421803 0.490459
546 2 0.605589 0.29097 0.440706
721 5 0.634806 0.397329 0.410638
593 3 0.663346 0.485457 0.453977
433 1 0.721772 0.351803 0.436675
312 1 0.652414 0.279355 0.426213
1004 2 0.754464 0.396993 0.448085
44 2 0.712696 0.301617 0.422955
57 1 0.635563 0.287758 0.459567
37 1 0.712928 0.32753 0.40321
669 1 0.709172 0.432146 0.45759
767 1 0.598833 0.473811 0.464785
586 1 0.586583 0.352452 0.437357
536 1 0.525132 0.460389 0.437369
1133 1 0.556173 0.255862 0.433572
863 2 0.536837 0.468402 0.45827
1091 1 0.790206 0.367569 0.464399
761 3 0.842573 0.371726 0.479665
476 5 0.911653 0.260156 0.476369
357 2 0.882811 0.477712 0.497965
263 1 0.89835 0.347312 0.469098
1138 1 0.946988 0.461384 0.496249
735 1 0.850081 0.438282 0.484824
636 1 0.876681 0.487223 0.432903
674 1 0.837534 0.457614 0.401723
64 2 0.821205 0.475108 0.421889
604 5 0.967425 0.261147 0.42376
131 1 0.924337 0.321595 0.404078
1021 5 0.828805 0.297861 0.447504
1190 5 0.924135 0.415264 0.407535
1035 5 0.911809 0.436563 0.453924
103 1 0.793406 0.428916 0.434852
672 1 0.760258 0.260961 0.427677
1121 2 0.562268 0.132294 0.527806
1109 1 0.501141 0.149682 0.524072
164 1 0.587627 0.081946 0.517121
73 2 0.596758 0.251493 0.526128
58 1 0.689161 0.0914733 0.515296
901 2 0.637647 0.0773936 0.503412
304 1 0.598097 0.185342 0.522804
1041 1 0.569684 0.124265 0.548998
936 1 0.71867 0.0479977 0.597018
1139 1 0.645714 0.0926296 0.572265
53 1 0.690329 0.147481 0.596923
626 2 0.607812 0.141565 0.565612
210 5 0.718204 0.0576551 0.540624
339 2 0.698719 0.0943923 0.584351
43 5 0.703116 0.184669 0.53012
369 1 0.646333 0.188493 0.559846
971 1 0.689769 0.254803 0.589341
976 5 0.508141 0.370704 0.404856
830 1 0.577011 0.162411 0.58303
350 2 0.569339 0.0253979 0.591925
250 2 0.535013 0.183018 0.597315
1195 1 0.515944 0.0648354 0.590004
487 5 0.513717 0.0435177 0.552374
1154 5 0.771708 0.0945379 0.501684
515 5 0.874197 0.100514 0.524004
408 1 0.958807 0.134939 0.524879
384 5 0.89193 0.221043 0.512642
224 1 0.80873 0.0278587 0.522207
794 1 0.951169 0.00983767 0.509889
1198 1 0.808672 0.187731 0.552119
157 1 0.902135 0.0511968 0.5784
348 5 0.508029 0.333121 0.569157
1005 1 0.829127 0.0816665 0.558167
332 1 0.986895 0.116413 0.560181
1187 2 0.868888 0.0333418 0.561056
809 2 0.989991 0.124944 0.581558
677 1 0.970123 0.214715 0.549079
118 2 0.804986 0.137185 0.56504
147 1 0.905836 0.0193929 0.544583
570 1 0.938393 0.155153 0.590294
200 2 0.993361 0.156843 0.54233
273 1 0.829605 0.151628 0.584635
228 1 0.745035 0.115197 0.571106
895 1 0.541954 0.396191 0.501403
427 2 0.597414 0.405527 0.512036
1054 5 0.990958 0.347952 0.459758
509 1 0.585328 0.397728 0.532787
878 1 0.568728 0.276146 0.507578
924 1 0.610399 0.469674 0.509485
612 1 0.748934 0.328222 0.511974
235 1 0.653034 0.282271 0.52939
279 1 0.648483 0.371624 0.506895
899 1 0.740481 0.470441 0.516117
948 3 0.6891 0.339964 0.522657
431 2 0.707755 0.483885 0.587665
379 2 0.725083 0.452723 0.535954
720 1 0.752396 0.277228 0.560595
890 1 0.754567 0.442677 0.592874
831 2 0.634538 0.393484 0.576951
98 1 0.749643 0.336557 0.590452
203 2 0.715743 0.300785 0.57603
716 1 0.709207 0.388275 0.536521
391 1 0.663673 0.451478 0.575011
351 1 0.666381 0.340267 0.570978
172 1 0.672908 0.485108 0.542132
801 1 0.568649 0.490883 0.55156
1119 3 0.547373 0.426681 0.55016
1056 1 0.552158 0.259501 0.541243
850 1 0.575778 0.397535 0.569668
1081 5 0.606561 0.265183 0.566028
336 1 0.866903 0.473822 0.518393
884 1 0.821669 0.273279 0.529277
843 5 0.924742 0.387786 0.522244
488 1 0.976053 0.289703 0.5202
825 2 0.811669 0.329451 0.518901
133 1 0.847853 0.343094 0.501753
18 1 0.815983 0.389392 0.570842
982 3 0.813176 0.258483 0.551406
1102 1 0.886128 0.44496 0.556727
769 1 0.858899 0.277302 0.567721
291 1 0.908369 0.348127 0.589565
1158 1 0.948312 0.258205 0.584657
623 1 0.989214 0.455782 0.573629
1100 2 0.83183 0.416215 0.55136
946 1 0.949214 0.32528 0.556196
869 3 0.983919 0.278962 0.54389
742 2 0.913837 0.30284 0.573897
266 1 0.981411 0.462348 0.535449
529 1 0.825104 0.372651 0.535422
530 3 0.948989 0.476785 0.555661
737 2 0.78841 0.387406 0.590464
189 1 0.78026 0.458243 0.548213
1108 5 0.9477 0.00430531 0.59895
687 1 0.503566 0.0875427 0.491924
1044 1 0.584205 0.00859209 0.572033
840 1 0.597052 0.0631282 0.401955
664 1 0.64799 0.49699 0.432037
152 1 0.636549 0.385028 0.59832
1175 1 0.565879 0.170067 0.400275
300 2 0.563133 0.193311 0.651643
1043 1 0.624563 0.184599 0.652179
788 1 0.727798 0.157956 0.649269
354 2 0.703544 0.20544 0.603559
441 2 0.63404 0.00767891 0.625966
748 1 0.676984 0.213326 0.622848
875 1 0.608699 0.0388013 0.60867
1152 1 0.675856 0.0301386 0.640047
122 5 0.65782 0.0866836 0.66572
46 5 0.778892 0.0581064 0.661488
656 2 0.68476 0.20338 0.644653
355 1 0.740597 0.359701 0.662382
539 1 0.529046 0.140668 0.648622
1025 1 0.526518 0.146713 0.615182
240 1 0.555286 0.239346 0.605917
601 1 0.549012 0.247727 0.642279
1140 2 0.992869 0.183416 0.636439
430 5 0.82212 0.291112 0.612862
932 1 0.849499 0.0130235 0.667163
194 5 0.947149 0.0902457 0.683296
1182 5 0.861917 0.215397 0.665359
33 5 0.878289 0.0898368 0.648149
383 1 0.949151 0.163743 0.651352
93 1 0.972866 0.20826 0.617261
736 5 0.821907 0.0610917 0.600678
666 1 0.875706 0.221247 0.60548
615 1 0.93483 0.0111646 0.628638
975 5 0.9403 0.0998694 0.617048
335 1 0.82461 0.135213 0.619589
292 2 0.82745 0.178721 0.60399
1151 1 0.770016 0.210837 0.60779
448 5 0.744106 0.0894173 0.627608
223 1 0.602103 0.409629 0.628659
933 2 0.640307 0.367312 0.620107
642 2 0.763494 0.416384 0.667963
527 1 0.696371 0.354912 0.629301
471 1 0.731387 0.467489 0.661647
457 2 0.723152 0.320294 0.645259
771 1 0.700953 0.266517 0.648936
600 1 0.567424 0.490516 0.610981
1130 2 0.551406 0.448406 0.627763
641 1 0.531857 0.480852 0.644368
463 2 0.553078 0.280506 0.622506
1009 1 0.607618 0.311552 0.622849
193 1 0.505873 0.41904 0.617014
972 1 0.90646 0.454519 0.600352
453 1 0.855082 0.478373 0.648542
963 1 0.906894 0.390359 0.658162
1080 2 0.898121 0.393898 0.604614
65 1 0.909572 0.374262 0.624724
1132 2 0.870544 0.440526 0.663983
887 2 0.89867 0.342806 0.643222
675 1 0.816495 0.433759 0.677677
498 1 0.997714 0.408881 0.605829
569 1 0.834528 0.330782 0.64305
1048 1 0.963112 0.00700236 0.662917
1040 1 0.932552 0.290104 0.644306
56 1 0.830837 0.387132 0.605921
909 5 0.996392 0.414676 0.645541
524 1 0.500132 0.317391 0.620105
423 1 0.615281 0.692055 0.39788