ITEM: TIMESTEP
0
ITEM: NUMBER OF ATOMS
1200
ITEM: BOX BOUNDS pp pp pp
-7.6266250050336382e-02 2.5098596345622489e+01
-7.6266250050336382e-02 2.5098596345622489e+01
-2.5251128845723162e+01 5.0273458941295317e+01
ITEM: ATOMS id type xs ys zs
1070 2 0.174272 0.0357713 0.394681
1149 3 0.245884 0.114995 0.350627
419 1 0.246084 0.144035 0.371416
108 1 0.247513 0.0466471 0.351226
804 1 0.234176 0.0319004 0.386834
1146 5 0.00141984 0.206272 0.38667
96 1 0.043063 0.0187171 0.392376
1076 1 0.189954 0.142635 0.339078
1193 1 0.0423267 0.0751484 0.362924
580 5 0.168453 0.167218 0.389741
269 2 0.0625938 0.213841 0.35414
638 5 0.189769 0.212985 0.359334
390 2 0.0669389 0.0726836 0.382301
645 3 0.0708787 0.0379509 0.346367
967 1 0.0941839 0.195741 0.371924
389 1 0.0905863 0.180975 0.337518
760 1 0.0541401 0.121551 0.396701
542 1 0.131331 0.0672488 0.382937
935 2 0.40621 0.247476 0.33424
787 1 0.409181 0.191127 0.343638
121 5 0.47622 0.130287 0.359264
314 1 0.441406 0.175085 0.385035
590 2 0.464501 0.234592 0.383539
907 1 0.421652 0.00288949 0.388165
624 3 0.497697 0.0131136 0.3465
559 1 0.427991 0.036638 0.355027
793 3 0.264895 0.00224815 0.368435
973 5 0.320263 0.207105 0.359232
290 1 0.344945 0.180256 0.396284
468 2 0.3919 0.140474 0.393076
1174 1 0.295932 0.137486 0.335471
1037 1 0.373584 0.0914565 0.379754
432 5 0.25276 0.212781 0.398732
196 2 0.390045 0.0318659 0.372118
82 1 0.207428 0.28335 0.334389
346 2 0.227619 0.316131 0.352076
477 5 0.0108976 0.357927 0.342676
1059 1 0.0457409 0.4162 0.391745
40 5 0.109751 0.303273 0.376536
686 2 0.0138172 0.464257 0.382117
813 1 0.0187435 0.460169 0.360495
403 5 0.129469 0.433164 0.364516
188 5 0.167658 0.367156 0.391952
1071 1 0.181229 0.351061 0.361871
834 1 0.188826 0.463449 0.390005
418 1 0.0669086 0.278222 0.351092
998 1 0.410068 0.360802 0.397191
703 2 0.401571 0.484009 0.35348
241 1 0.42011 0.278757 0.377279
929 1 0.464189 0.272699 0.337951
373 1 0.405091 0.47532 0.374811
1171 1 0.450098 0.445142 0.346697
409 1 0.471329 0.353444 0.365048
1159 2 0.417574 0.344587 0.376644
412 2 0.343976 0.349642 0.344249
628 1 0.359366 0.287863 0.341307
660 1 0.251706 0.27605 0.36688
151 1 0.368389 0.359606 0.363814
893 5 0.331801 0.276883 0.390338
565 5 0.285348 0.439077 0.376556
26 5 0.25022 0.439573 0.334941
1053 1 0.278175 0.353849 0.346024
460 1 0.342019 0.467393 0.34684
296 1 0.0638585 0.0102695 0.498944
397 2 0.0288288 0.226657 0.472479
885 5 0.178061 0.211927 0.480206
1185 5 0.0924847 0.104776 0.483008
88 1 0.0192102 0.164856 0.478244
28 1 0.207152 0.112937 0.489182
62 5 0.229194 0.0147456 0.43438
953 5 0.0889496 0.00849311 0.422476
20 1 0.151438 0.00645538 0.45136
1060 5 0.162274 0.209539 0.445508
137 5 0.153498 0.0975323 0.44389
377 2 0.0515242 0.145513 0.417301
537 1 0.178228 0.06804 0.413156
15 5 0.0555858 0.039536 0.456652
353 1 0.0964581 0.193353 0.416489
1017 1 0.0899622 0.2329 0.465816
1024 1 0.0649406 0.0971784 0.43143
472 1 0.260236 0.032357 0.476553
75 1 0.309988 0.114028 0.491922
375 2 0.259982 0.0964718 0.478501
206 1 0.258602 0.22868 0.494959
407 1 0.481927 0.215436 0.49379
687 1 0.488229 0.080167 0.492262
247 5 0.411071 0.122285 0.471341
378 2 0.462311 0.0205869 0.445273
516 1 0.454199 0.0861067 0.442808
406 1 0.472271 0.185162 0.428232
91 1 0.419831 0.112428 0.41082
557 2 0.489095 0.247954 0.424192
920 2 0.469254 0.120609 0.425439
211 5 0.327263 0.016368 0.403549
858 1 0.258926 0.184775 0.432018
443 2 0.297026 0.138439 0.44153
14 1 0.300544 0.0796206 0.431895
322 5 0.366184 0.238088 0.428614
968 1 0.261543 0.124909 0.459654
309 5 0.271868 0.111576 0.401867
72 1 0.35465 0.162451 0.447463
32 5 0.303188 0.238313 0.463619
364 1 0.00665736 0.362503 0.492732
779 5 0.144885 0.438417 0.474989
871 3 0.00324784 0.433406 0.489671
242 1 0.0135804 0.257278 0.490574
754 1 0.0305353 0.454934 0.46995
78 5 0.142772 0.303078 0.478117
34 1 0.24899 0.413342 0.479919
45 1 0.219571 0.497265 0.49809
663 1 0.105115 0.358243 0.45607
208 1 0.213387 0.495891 0.442269
1079 5 0.237095 0.430354 0.416845
1054 5 0.012664 0.35429 0.460386
435 1 0.198765 0.302596 0.452598
392 1 0.00848205 0.439577 0.436673
591 5 0.0375681 0.362748 0.419861
827 1 0.118795 0.290745 0.429321
689 2 0.147411 0.332442 0.4428
722 1 0.0946118 0.496024 0.443726
1128 2 0.0340184 0.484772 0.45057
249 2 0.111765 0.255013 0.411806
265 1 0.172958 0.378207 0.429399
741 5 0.108431 0.437334 0.414809
1173 1 0.0568896 0.280149 0.402558
533 1 0.166045 0.259704 0.401114
1078 1 0.377264 0.408587 0.467631
564 2 0.374159 0.364996 0.484458
139 5 0.263193 0.320496 0.485941
547 1 0.324255 0.472321 0.495366
561 1 0.357356 0.310692 0.474952
256 2 0.266685 0.471951 0.485874
447 2 0.487373 0.405932 0.490743
4 1 0.437455 0.365793 0.490394
204 1 0.468614 0.464 0.499724
851 1 0.407399 0.492251 0.449957
608 1 0.465675 0.473315 0.405172
976 5 0.488592 0.38896 0.420095
115 1 0.485915 0.251494 0.402544
696 5 0.427729 0.250694 0.463752
996 1 0.444731 0.286669 0.432359
102 5 0.47326 0.34945 0.453066
382 5 0.257029 0.279489 0.428478
1039 5 0.263144 0.365327 0.448501
109 1 0.330812 0.324973 0.418519
694 1 0.310993 0.452907 0.443839
494 2 0.367373 0.37727 0.412642
308 1 0.391258 0.402633 0.431243
633 1 0.332492 0.424266 0.403195
410 2 0.372332 0.437767 0.448679
550 1 0.126637 0.109957 0.513945
574 5 0.0531826 0.177565 0.508557
1155 1 0.130405 0.224456 0.505503
520 2 0.189233 0.111346 0.510358
811 1 0.21849 0.0583149 0.517933
643 1 0.216982 0.165556 0.51797
785 1 0.103171 0.075708 0.580404
857 1 0.205058 0.0563579 0.57601
69 2 0.205763 0.19398 0.595768
114 2 0.2475 0.0228122 0.5883
640 1 0.0381115 0.00323125 0.568123
1089 1 0.00424795 0.0813295 0.588449
1006 1 0.0459384 0.129326 0.542574
738 3 0.0812414 0.223727 0.588287
647 2 0.156739 0.0988624 0.57082
192 1 0.150685 0.110675 0.549917
632 1 0.0273703 0.179813 0.582181
897 2 0.0513654 0.0408798 0.584817
826 3 0.0997831 0.0928661 0.535037
680 1 0.091696 0.0268162 0.540147
548 1 0.176599 0.154356 0.580347
803 5 0.185959 0.200473 0.550532
219 1 0.110248 0.238094 0.568288
23 1 0.344367 0.0839876 0.525182
298 2 0.261847 0.211825 0.515482
101 1 0.32088 0.184974 0.516945
854 2 0.347011 0.129063 0.509796
395 5 0.350348 0.00327782 0.509794
470 2 0.461346 0.181012 0.510784
413 1 0.434208 0.226087 0.524605
684 1 0.476864 0.0182967 0.521963
833 1 0.409322 0.144448 0.506064
930 2 0.487962 0.0208953 0.500347
81 1 0.414471 0.0269341 0.589663
961 2 0.448069 0.0804067 0.585214
900 3 0.416345 0.200526 0.590606
945 5 0.486716 0.193157 0.552597
42 1 0.48489 0.203519 0.585777
415 1 0.430227 0.129268 0.59854
1161 1 0.437575 0.103802 0.564999
1066 5 0.384615 0.151329 0.543255
596 1 0.281672 0.166043 0.554278
1199 2 0.309813 0.203505 0.568821
10 1 0.268939 0.201384 0.586764
220 1 0.303655 0.0224674 0.577654
646 5 0.26055 0.0778769 0.547226
837 5 0.361295 0.0392061 0.551125
438 1 0.36566 0.182316 0.576477
1001 2 0.138336 0.28155 0.51574
92 1 0.083587 0.31397 0.509258
916 1 0.0440156 0.463415 0.50665
685 2 0.0230738 0.499019 0.522909
342 5 0.149632 0.493541 0.521211
605 1 0.183707 0.317487 0.506491
424 2 0.02019 0.30896 0.503349
798 5 0.218811 0.406559 0.51075
558 5 0.234716 0.338918 0.590291
317 3 0.228099 0.463963 0.586836
611 1 0.24425 0.339849 0.552711
215 1 0.20432 0.417764 0.572725
367 5 0.062044 0.398142 0.534098
551 1 0.194898 0.255634 0.599867
366 1 0.0502264 0.31286 0.551224
130 5 0.0228881 0.363007 0.580268
759 1 0.145278 0.33435 0.565528
231 2 0.10777 0.289498 0.555923
153 1 0.138093 0.277689 0.53694
786 2 0.00432477 0.472711 0.593505
518 1 0.0557538 0.286886 0.593588
127 1 0.163612 0.403134 0.539848
352 1 0.0683935 0.479956 0.595626
174 2 0.190111 0.373746 0.557184
439 5 0.111621 0.466131 0.562381
100 2 0.341414 0.388959 0.524144
922 5 0.37105 0.275481 0.50668
977 1 0.259917 0.257644 0.530765
535 1 0.291614 0.429782 0.529488
966 1 0.39656 0.420792 0.530516
1013 1 0.342269 0.370066 0.503427
268 1 0.467249 0.499867 0.532143
227 1 0.410663 0.271482 0.580613
952 2 0.425946 0.49186 0.581434
652 5 0.418368 0.291236 0.54972
348 5 0.48486 0.373395 0.578923
784 2 0.438687 0.450497 0.542964
861 1 0.479506 0.462206 0.58677
706 1 0.414342 0.475994 0.56076
303 1 0.488544 0.410051 0.548171
340 1 0.38115 0.476832 0.597261
1105 1 0.333159 0.331528 0.534138
1099 1 0.387315 0.366013 0.570409
812 2 0.385695 0.326933 0.587159
1057 1 0.313226 0.262336 0.560169
1118 1 0.28245 0.43604 0.598645
105 2 0.286991 0.298507 0.544643
1194 5 0.312803 0.439149 0.564557
372 1 0.328824 0.328631 0.596958
104 5 0.204547 0.035444 0.657824
123 1 0.249094 0.207334 0.646361
610 1 0.211439 0.15079 0.611795
1094 2 0.216187 0.0921401 0.620367
162 1 0.00526011 0.142059 0.629331
1111 1 0.0606698 0.00103609 0.60138
142 1 0.110659 0.0815139 0.665532
1131 5 0.0991467 0.0133303 0.640472
1048 1 0.0286492 0.00940987 0.662878
711 5 0.0777799 0.101576 0.618882
700 1 0.13783 0.156418 0.641172
359 1 0.161639 0.0593994 0.621654
1126 1 0.112029 0.197765 0.608079
47 2 0.117919 0.209604 0.629361
94 1 0.0579179 0.227818 0.636633
230 2 0.13371 0.14002 0.662488
1072 1 0.450208 0.158377 0.635227
753 1 0.473312 0.0634106 0.627922
999 1 0.401158 0.242259 0.646101
1086 1 0.470738 0.0104809 0.657628
1103 2 0.448612 0.0108562 0.637147
209 1 0.387026 0.216684 0.611974
1014 1 0.38188 0.00916399 0.638868
205 5 0.388078 0.0993231 0.661701
255 1 0.34443 0.160914 0.638449
986 1 0.253377 0.0582331 0.606196
991 5 0.332009 0.123469 0.603972
365 1 0.252619 0.102912 0.638287
111 2 0.398759 0.195134 0.631692
651 2 0.284897 0.152319 0.648185
458 1 0.158565 0.253254 0.637159
51 1 0.204428 0.452345 0.641623
343 1 0.249098 0.311859 0.637764
1114 2 0.215297 0.267685 0.646981
1145 1 0.120417 0.466861 0.660804
1183 5 0.0782736 0.31749 0.655
870 1 0.12328 0.383293 0.638163
1117 5 0.137639 0.326612 0.613672
556 1 0.176331 0.481371 0.601806
136 5 0.00197933 0.32535 0.615423
909 5 0.0251347 0.411293 0.633981
631 1 0.109186 0.481581 0.628011
1069 2 0.141238 0.442774 0.641979
1150 1 0.43022 0.377974 0.635648
524 1 0.494031 0.297921 0.623836
525 2 0.468481 0.356005 0.619218
344 1 0.429094 0.345943 0.602678
54 1 0.415506 0.472356 0.648416
607 2 0.329518 0.467872 0.609273
639 5 0.259888 0.393058 0.626059
956 1 0.34257 0.432514 0.628247
1000 1 0.360673 0.381467 0.659949
202 5 0.346916 0.309359 0.626701
71 2 0.386085 0.415628 0.644354
31 5 0.291069 0.253875 0.612406
370 1 0.113211 0.534153 0.355193
572 2 0.200202 0.524774 0.397137
388 1 0.236722 0.749437 0.389731
1136 1 0.232572 0.725958 0.352598
915 1 0.240707 0.540377 0.336531
429 5 0.235239 0.6252 0.363721
739 5 0.163316 0.684964 0.389774
1101 1 0.183048 0.566429 0.382705
763 1 0.0757822 0.73008 0.35318
1036 1 0.0323764 0.519177 0.391823
708 1 0.136763 0.640299 0.357436
577 2 0.106646 0.527309 0.333942
85 1 0.0836731 0.607097 0.386392
839 2 0.106141 0.681508 0.344199
212 2 0.0239828 0.581426 0.388011
1144 3 0.126903 0.580375 0.370678
422 5 0.0475724 0.699738 0.382174
919 1 0.415542 0.558904 0.393695
598 1 0.411811 0.660571 0.386845
1033 1 0.415152 0.644428 0.334848
1064 1 0.4965 0.599044 0.350697
9 1 0.496554 0.524936 0.37551
918 1 0.412149 0.544298 0.346035
917 2 0.447294 0.505728 0.388054
715 2 0.449793 0.58887 0.336494
766 5 0.478003 0.696306 0.357472
176 5 0.350478 0.690858 0.362188
579 1 0.331222 0.599144 0.374161
124 2 0.372447 0.608243 0.389991
668 5 0.267864 0.52914 0.366382
807 5 0.327136 0.593199 0.338523
1122 1 0.235342 0.942456 0.361542
1088 2 0.214748 0.88953 0.350895
286 1 0.225682 0.833504 0.361484
797 1 0.190501 0.882823 0.397488
637 1 0.151351 0.977006 0.398431
89 1 0.14848 0.893222 0.349931
921 5 0.129227 0.803014 0.334457
532 1 0.00108284 0.787399 0.380394
762 1 0.0979038 0.984467 0.357122
416 1 0.0383282 0.90317 0.353001
6 5 0.0891326 0.79962 0.376278
519 2 0.0972315 0.921478 0.358875
815 2 0.133015 0.914895 0.398913
752 5 0.0153703 0.80848 0.348347
747 1 0.100532 0.904248 0.380143
734 5 0.40102 0.763306 0.386409
500 5 0.446244 0.814379 0.349411
1186 1 0.49378 0.951633 0.357984
758 1 0.448181 0.871914 0.375004
465 1 0.335711 0.999117 0.367826
635 5 0.332162 0.956662 0.336692
52 5 0.357522 0.857077 0.388566
404 1 0.319733 0.784392 0.369139
750 5 0.298662 0.788117 0.337157
679 1 0.289487 0.93082 0.397759
697 5 0.357117 0.87885 0.359514
84 3 0.251622 0.775044 0.368849
1007 1 0.193788 0.60022 0.480295
12 5 0.0845391 0.74151 0.477174
1157 1 0.109974 0.651884 0.469996
844 2 0.239279 0.749038 0.488497
531 1 0.228021 0.73777 0.425377
718 1 0.248585 0.636359 0.423822
620 2 0.205128 0.679901 0.431314
135 1 0.198198 0.676825 0.452718
398 5 0.0136496 0.649136 0.465656
1058 1 0.146048 0.673802 0.422139
670 1 0.158706 0.588303 0.447562
444 1 0.161022 0.530237 0.413847
445 3 0.156713 0.528406 0.437333
994 5 0.0708237 0.588857 0.430477
1135 1 0.100706 0.747712 0.404638
446 1 0.0348841 0.687218 0.422384
1137 2 0.09432 0.715647 0.422739
1169 2 0.167059 0.629735 0.463477
1083 1 0.329767 0.639408 0.479307
213 5 0.367353 0.536121 0.480073
1002 1 0.276496 0.510227 0.468357
1018 2 0.300796 0.645566 0.498495
349 1 0.257242 0.692134 0.497547
1197 2 0.457808 0.740574 0.469701
749 1 0.406186 0.699191 0.46867
554 5 0.44326 0.653083 0.497962
238 1 0.479258 0.560048 0.42894
501 5 0.444112 0.633918 0.416652
499 1 0.421218 0.714215 0.430513
528 1 0.411552 0.599926 0.46043
1049 3 0.44822 0.549577 0.451406
1031 1 0.335835 0.653965 0.444109
789 1 0.302027 0.559359 0.43894
562 1 0.335194 0.735129 0.410071
575 1 0.260474 0.527058 0.402324
985 5 0.348935 0.516536 0.413923
847 1 0.345118 0.614051 0.410652
911 2 0.307838 0.617417 0.428677
740 2 0.274496 0.506574 0.447214
1038 2 0.370494 0.649958 0.462005
426 1 0.0582233 0.850127 0.473992
1087 1 0.131534 0.954559 0.481376
11 1 0.175568 0.756593 0.486167
167 5 0.137579 0.846369 0.490032
70 2 0.0016855 0.878328 0.478004
374 1 0.247226 0.8908 0.485572
853 5 0.167405 0.808239 0.414743
705 2 0.233656 0.899782 0.447612
183 2 0.248869 0.89009 0.407035
603 1 0.229114 0.909628 0.426148
475 5 0.0077689 0.915757 0.431729
823 5 0.177131 0.777266 0.454962
180 5 0.0939742 0.850286 0.444172
35 1 0.105067 0.755708 0.438387
594 1 0.172428 0.904309 0.454019
988 2 0.13146 0.9513 0.46013
993 5 0.028028 0.815393 0.407918
892 1 0.0713197 0.943123 0.452928
997 5 0.0257757 0.789539 0.451971
334 1 0.101588 0.893747 0.415445
941 1 0.345988 0.952206 0.482437
764 1 0.34334 0.829002 0.47051
881 1 0.271259 0.753595 0.469072
1015 3 0.278095 0.959074 0.479929
434 1 0.261645 0.802647 0.499496
294 1 0.430913 0.900754 0.474394
293 1 0.461569 0.767662 0.490397
877 1 0.43663 0.990858 0.491259
874 2 0.406643 0.958272 0.476132
479 1 0.466591 0.993567 0.425971
140 1 0.40773 0.810946 0.41831
699 1 0.407963 0.915578 0.41163
958 3 0.403663 0.850716 0.462929
325 1 0.44317 0.795428 0.457571
277 1 0.485121 0.870122 0.429289
86 1 0.414335 0.994638 0.457338
898 3 0.452163 0.965804 0.405376
356 2 0.423356 0.869218 0.426099
1034 1 0.389681 0.882946 0.442927
226 1 0.268456 0.94652 0.455951
138 1 0.338201 0.770919 0.44191
1156 3 0.27009 0.76172 0.408956
513 2 0.303085 0.798503 0.458321
980 5 0.340551 0.972479 0.436501
386 1 0.275022 0.830394 0.408554
144 2 0.376214 0.757165 0.425551
942 1 0.258854 0.839447 0.449131
1189 5 0.162039 0.692563 0.514683
549 1 0.0729719 0.680018 0.524842
1147 5 0.0879329 0.605316 0.500535
665 2 0.026573 0.722291 0.526125
657 1 0.174356 0.583557 0.517713
1112 3 0.213679 0.56649 0.500197
618 5 0.233017 0.503037 0.532542
655 5 0.22697 0.654386 0.536319
120 1 0.23531 0.610781 0.567631
910 5 0.113007 0.607261 0.543335
182 1 0.153421 0.544967 0.573077
39 1 0.0707645 0.514911 0.536458
616 1 0.036267 0.636541 0.568463
506 1 0.141116 0.642063 0.580481
1142 5 0.0593354 0.549962 0.568442
820 2 0.0786253 0.671803 0.58014
751 1 0.171868 0.731382 0.548965
145 1 0.0884505 0.729565 0.571013
1061 2 0.184958 0.594863 0.580982
307 2 0.3698 0.703015 0.528349
678 1 0.347848 0.661897 0.512857
568 5 0.33798 0.528388 0.520792
168 1 0.275056 0.590895 0.504982
462 5 0.492084 0.624327 0.528798
978 2 0.471054 0.519841 0.510749
283 1 0.408735 0.743239 0.518781
387 1 0.424262 0.561208 0.507047
581 1 0.410159 0.668507 0.541872
902 1 0.417333 0.663519 0.577426
181 1 0.439685 0.555193 0.581601
1170 2 0.437783 0.693743 0.559717
541 5 0.396533 0.572205 0.541986
281 1 0.306275 0.57136 0.547485
79 1 0.319847 0.724508 0.539229
1 1 0.335233 0.586468 0.579931
143 1 0.258927 0.514794 0.57449
1028 3 0.397968 0.606097 0.588678
534 2 0.284964 0.573196 0.567219
886 5 0.263099 0.718676 0.564792
490 5 0.115964 0.839089 0.524804
1050 1 0.0800632 0.912333 0.509076
474 1 0.157877 0.976932 0.513951
7 1 0.0188614 0.754231 0.50715
576 2 0.107628 0.964361 0.501404
545 2 0.220677 0.991778 0.519001
246 1 0.203484 0.865773 0.518196
702 1 0.0304786 0.765904 0.541737
841 5 0.247684 0.787145 0.535716
1116 1 0.226652 0.96304 0.592025
1141 1 0.232418 0.975326 0.539679
862 1 0.000637392 0.980122 0.535395
262 1 0.176856 0.762808 0.583234
727 3 0.0833769 0.874039 0.566668
860 2 0.0541011 0.980256 0.547656
451 5 0.170366 0.9591 0.565745
405 1 0.0936311 0.914633 0.584781
765 1 0.127895 0.825774 0.562436
399 5 0.196384 0.885125 0.548301
376 1 0.0845334 0.923968 0.548943
482 1 0.0219382 0.840524 0.566575
521 1 0.186347 0.858537 0.596977
567 2 0.14062 0.763384 0.564434
1011 2 0.255922 0.865926 0.505044
1184 1 0.308428 0.878555 0.517566
495 1 0.39688 0.932417 0.528565
1093 2 0.370293 0.874985 0.522602
41 1 0.260874 0.969946 0.504472
1113 1 0.490879 0.806837 0.523645
511 1 0.407478 0.845962 0.507551
83 2 0.444129 0.790673 0.509696
368 2 0.402166 0.817237 0.557273
414 1 0.467231 0.964268 0.556255
719 3 0.460139 0.958258 0.533886
1095 1 0.459516 0.762406 0.594312
315 1 0.422146 0.757841 0.55765
484 1 0.444924 0.864463 0.561159
450 2 0.441884 0.922554 0.570063
360 1 0.455273 0.916633 0.590786
731 1 0.363203 0.823655 0.57475
905 1 0.377357 0.94343 0.572085
1115 1 0.291395 0.772744 0.591387
310 5 0.301833 0.918494 0.549736
816 1 0.263824 0.831327 0.563685
221 2 0.301576 0.824925 0.581117
592 1 0.375795 0.833707 0.538745
1023 1 0.28775 0.876902 0.593574
234 3 0.355873 0.989439 0.58806
913 5 0.00114438 0.733551 0.66457
68 1 0.232006 0.57238 0.63498
852 2 0.216969 0.703481 0.665765
440 5 0.225439 0.694099 0.604866
329 1 0.221764 0.639716 0.662488
950 2 0.211169 0.578477 0.655608
710 1 0.229745 0.746469 0.649848
544 1 0.21689 0.587622 0.600129
1166 1 0.152711 0.708884 0.666279
627 1 0.0639069 0.647965 0.666407
1085 2 0.116723 0.504744 0.608124
337 5 0.00652913 0.517925 0.630627
1104 1 0.0493836 0.550006 0.659985
819 1 0.0658071 0.663438 0.601647
1020 1 0.0440429 0.736871 0.631162
609 2 0.0924141 0.626421 0.617257
704 1 0.147789 0.56819 0.657033
891 1 0.105745 0.568268 0.608529
455 1 0.147569 0.655125 0.623201
955 1 0.0508762 0.615136 0.633351
437 5 0.13681 0.735709 0.637035
906 2 0.0304331 0.609757 0.654256
1008 1 0.413858 0.745138 0.658021
483 1 0.471152 0.501526 0.621334
724 5 0.497732 0.643744 0.635519
1191 1 0.47868 0.737556 0.627915
1074 2 0.468731 0.503052 0.642972
106 1 0.472359 0.56478 0.651375
282 5 0.49343 0.58409 0.603754
119 1 0.397117 0.606694 0.61097
50 5 0.295141 0.500471 0.648875
125 1 0.321842 0.694746 0.665998
1125 2 0.26096 0.574662 0.615179
186 2 0.379555 0.689997 0.657953
923 1 0.300881 0.628565 0.616784
733 1 0.302017 0.52519 0.61361
927 1 0.375704 0.67699 0.636748
363 1 0.351248 0.578067 0.642572
129 2 0.356447 0.622273 0.627449
1180 5 0.363457 0.728404 0.605863
960 1 0.242432 0.891763 0.664484
937 3 0.229461 0.931151 0.643828
442 2 0.231927 0.904148 0.600491
1167 2 0.226744 0.799162 0.636602
588 1 0.206536 0.777922 0.617345
653 1 0.235881 0.909398 0.621969
236 1 0.00332748 0.756276 0.600537
80 1 0.176322 0.839206 0.641207
712 1 0.102761 0.796625 0.608866
1067 2 0.165537 0.799312 0.601718
345 1 0.0141039 0.833851 0.623007
802 2 0.0423791 0.779922 0.614742
244 3 0.125699 0.890051 0.640227
324 1 0.160905 0.945659 0.646134
1124 2 0.0638443 0.936135 0.603076
1003 1 0.0740354 0.862842 0.651284
1046 1 0.000650213 0.919279 0.600486
502 2 0.0147322 0.862583 0.642917
60 1 0.0955964 0.91291 0.62018
1106 1 0.404582 0.810502 0.632046
1176 5 0.454228 0.907543 0.661674
338 1 0.491748 0.815417 0.652647
838 1 0.457646 0.958725 0.624895
491 2 0.450253 0.77552 0.642959
99 2 0.488167 0.929935 0.608962
867 5 0.390804 0.857805 0.605816
931 1 0.280863 0.979132 0.642482
132 1 0.373502 0.850803 0.663418
177 3 0.351436 0.844292 0.641924
908 1 0.354506 0.908 0.632828
1110 2 0.336 0.97011 0.630924
1123 1 0.332785 0.979977 0.609119
217 1 0.287102 0.82003 0.63842
285 1 0.673612 0.171469 0.37382
725 1 0.639828 0.063344 0.361853
464 1 0.726632 0.090186 0.344197
659 5 0.690336 0.00143503 0.39823
1178 2 0.705078 0.21859 0.364556
1026 1 0.747087 0.195851 0.350041
1092 2 0.703807 0.0520126 0.36032
810 1 0.739126 0.0666314 0.378136
1175 1 0.574852 0.175488 0.396741
1016 5 0.588177 0.145776 0.366454
321 1 0.532249 0.051748 0.36405
934 1 0.509531 0.238694 0.36853
1148 2 0.590372 0.0390748 0.373208
757 1 0.529389 0.188852 0.339582
840 1 0.58856 0.0742675 0.391012
328 2 0.518154 0.247969 0.347713
497 5 0.815785 0.241999 0.333484
614 1 0.998416 0.20201 0.354114
1073 2 0.802937 0.0730795 0.381963
159 2 0.981946 0.00173952 0.394124
818 2 0.851645 0.0801897 0.342782
1032 1 0.822819 0.0120494 0.386071
330 1 0.895336 0.193566 0.348808
540 5 0.831265 0.1947 0.37482
957 1 0.950822 0.0582898 0.389651
992 5 0.947976 0.126215 0.366524
288 2 0.948502 0.223817 0.341388
1068 1 0.829235 0.0249182 0.335122
990 1 0.83139 0.0913068 0.363179
1163 1 0.816999 0.114186 0.397323
107 1 0.913684 0.0788078 0.341857
585 3 0.755572 0.143399 0.334681
940 1 0.55507 0.3641 0.396447
688 1 0.656053 0.344498 0.333606
729 1 0.610679 0.343339 0.365693
16 2 0.626302 0.309926 0.348451
396 1 0.745897 0.446773 0.387599
254 2 0.684375 0.464693 0.383941
216 1 0.678994 0.48664 0.363754
77 1 0.640974 0.418256 0.386804
1096 1 0.739009 0.250442 0.379941
984 1 0.668691 0.264006 0.353965
428 1 0.614304 0.465363 0.336552
456 1 0.543056 0.387475 0.333445
267 1 0.57304 0.2764 0.341852
774 1 0.548862 0.426929 0.367403
1192 2 0.586202 0.388293 0.379011
822 5 0.581682 0.276826 0.39604
690 3 0.50335 0.40182 0.352114
436 1 0.90045 0.464036 0.348021
299 1 0.937034 0.374394 0.364267
1200 1 0.849879 0.412531 0.379083
261 1 0.940474 0.28894 0.344158
947 2 0.904051 0.321546 0.359466
467 2 0.872308 0.28724 0.397397
732 2 0.810418 0.453766 0.389756
341 1 0.948982 0.461673 0.385848
297 1 0.812886 0.310006 0.393797
1045 1 0.845292 0.33285 0.351174
745 3 0.908423 0.435117 0.368568
904 5 0.993151 0.339171 0.387591
1010 1 0.897101 0.288563 0.377383
555 1 0.789598 0.421254 0.346317
676 1 0.754346 0.342945 0.366713
799 2 0.753389 0.312695 0.385774
692 2 0.788205 0.358558 0.348718
1019 5 0.533327 0.108118 0.46678
1030 2 0.536997 0.245954 0.486563
146 1 0.574601 0.201134 0.476565
691 1 0.630859 0.115285 0.484335
713 1 0.64515 0.0145944 0.493432
613 2 0.635071 0.172781 0.474408
179 1 0.682425 0.208922 0.483312
469 5 0.727868 0.042274 0.470707
783 1 0.683067 0.0597677 0.443219
2 1 0.624674 0.123142 0.421422
454 1 0.651833 0.158237 0.453553
401 5 0.722945 0.232572 0.45327
128 5 0.607731 0.0213664 0.46156
489 1 0.72459 0.148069 0.429221
864 2 0.67255 0.122497 0.437632
795 5 0.664584 0.198452 0.405238
770 1 0.518588 0.012194 0.454889
3 2 0.578314 0.118496 0.406541
30 1 0.524577 0.101542 0.417544
693 5 0.764418 0.232883 0.499426
478 1 0.77863 0.133195 0.472502
682 5 0.951069 0.109979 0.493704
253 5 0.875698 0.0378234 0.477177
622 2 0.836987 0.166101 0.469814
394 1 0.979198 0.037807 0.472996
116 1 0.862207 0.166093 0.489666
257 3 0.998653 0.00112017 0.4916
199 5 0.860065 0.0103814 0.414425
683 1 0.987499 0.246956 0.457028
782 1 0.829311 0.222716 0.460685
746 1 0.992036 0.170164 0.421061
582 5 0.912095 0.208533 0.434937
1179 5 0.978966 0.110254 0.452762
522 5 0.819395 0.169689 0.430558
214 1 0.865682 0.228046 0.404563
829 1 0.875083 0.127987 0.457441
493 5 0.913383 0.12703 0.4084
95 5 0.79129 0.0880865 0.445655
517 5 0.772836 0.193767 0.404753
880 1 0.503354 0.422419 0.470766
466 1 0.511817 0.291421 0.47352
218 5 0.597194 0.369559 0.470954
1052 5 0.689453 0.31333 0.479412
1168 5 0.736877 0.425107 0.493556
546 2 0.598898 0.29872 0.439289
721 5 0.611576 0.416789 0.419332
593 3 0.657954 0.484475 0.456139
433 1 0.723124 0.356394 0.438126
312 1 0.649572 0.292095 0.424713
1004 2 0.746511 0.396447 0.453544
44 2 0.71051 0.313424 0.422378
57 1 0.626395 0.281441 0.457645
37 1 0.710509 0.332245 0.401567
669 1 0.694639 0.427588 0.461514
767 1 0.593166 0.4766 0.464682
586 1 0.577941 0.360151 0.44074
536 1 0.525273 0.46808 0.437586
1133 1 0.549526 0.261947 0.431854
863 2 0.530677 0.46888 0.458922
1091 1 0.772933 0.367177 0.470003
761 3 0.838583 0.373056 0.48094
476 5 0.90903 0.275733 0.483676
357 2 0.879582 0.479155 0.497298
263 1 0.892322 0.356168 0.468978
1138 1 0.939679 0.455754 0.491701
735 1 0.839014 0.442553 0.48496
636 1 0.879288 0.487045 0.437399
674 1 0.825207 0.450349 0.410347
64 2 0.819839 0.477607 0.429606
604 5 0.989699 0.265438 0.426093
131 1 0.913058 0.316678 0.411027
1021 5 0.849481 0.300179 0.445984
1190 5 0.927695 0.412738 0.42158
1035 5 0.919277 0.439429 0.459516
103 1 0.787295 0.440226 0.443918
672 1 0.754743 0.268241 0.424065
1121 2 0.570977 0.131266 0.525788
1109 1 0.512408 0.152831 0.520885
164 1 0.592898 0.0782889 0.515943
73 2 0.598583 0.245748 0.523179
58 1 0.692314 0.0919116 0.513845
901 2 0.644368 0.0755171 0.501291
304 1 0.61227 0.180579 0.520419
1041 1 0.571168 0.124855 0.547379
936 1 0.730785 0.0406996 0.589433
1139 1 0.651387 0.0887626 0.567878
53 1 0.690704 0.137397 0.594797
626 2 0.611734 0.139956 0.564058
210 5 0.721549 0.053277 0.54362
339 2 0.70506 0.0916241 0.579318
43 5 0.705144 0.2004 0.533743
369 1 0.645187 0.187885 0.557153
971 1 0.693313 0.244569 0.589857
1044 1 0.573708 0.00451506 0.571309
830 1 0.578959 0.15763 0.581428
350 2 0.558261 0.0247723 0.590425
250 2 0.537778 0.183009 0.595471
1195 1 0.509959 0.0681677 0.588081
487 5 0.503301 0.0503074 0.550119
1154 5 0.785204 0.0919199 0.502108
515 5 0.856976 0.110371 0.521926
408 1 0.95082 0.138051 0.525444
384 5 0.901004 0.209468 0.520822
224 1 0.807399 0.026236 0.522977
794 1 0.948032 0.014759 0.508573
1198 1 0.815667 0.188903 0.551941
157 1 0.90425 0.0386009 0.582065
736 5 0.823898 0.0601329 0.596808
1005 1 0.842337 0.0852574 0.560267
332 1 0.955605 0.137318 0.562341
1187 2 0.878178 0.031667 0.562923
809 2 0.979069 0.138578 0.582723
677 1 0.984706 0.217238 0.543889
118 2 0.811406 0.140409 0.565504
147 1 0.907699 0.0144633 0.544942
570 1 0.93631 0.15958 0.597328
200 2 0.985086 0.153737 0.543396
273 1 0.819007 0.160249 0.5864
228 1 0.752142 0.118742 0.567215
895 1 0.54072 0.387719 0.500741
427 2 0.595143 0.405374 0.512042
943 5 0.508625 0.330784 0.529125
509 1 0.584322 0.396272 0.533281
878 1 0.568909 0.263421 0.5041
924 1 0.59978 0.470353 0.50736
612 1 0.748894 0.325663 0.512342
235 1 0.648785 0.283893 0.526067
279 1 0.64926 0.37497 0.506728
899 1 0.729316 0.481727 0.517725
948 3 0.689224 0.339925 0.521898
431 2 0.701109 0.478758 0.592444
379 2 0.722288 0.455389 0.537265
720 1 0.747818 0.276577 0.559015
890 1 0.749107 0.437598 0.595652
831 2 0.631184 0.38544 0.582706
98 1 0.748513 0.32749 0.590131
203 2 0.712816 0.292267 0.576974
716 1 0.713155 0.390417 0.536181
391 1 0.658362 0.445036 0.581053
351 1 0.662504 0.333316 0.574172
172 1 0.669903 0.479934 0.546189
801 1 0.566446 0.490964 0.553067
1119 3 0.554952 0.424141 0.552793
1056 1 0.55851 0.251109 0.540487
850 1 0.5758 0.38848 0.572281
1081 5 0.598312 0.264325 0.572938
336 1 0.872769 0.466718 0.517738
884 1 0.823509 0.278005 0.530975
843 5 0.926842 0.384252 0.529725
488 1 0.982013 0.304459 0.521552
825 2 0.81027 0.333415 0.520537
133 1 0.844031 0.34365 0.502085
18 1 0.807316 0.393572 0.570947
982 3 0.810377 0.258786 0.552723
1102 1 0.886338 0.446844 0.557024
769 1 0.853842 0.285375 0.569816
291 1 0.914824 0.361696 0.588305
1158 1 0.939367 0.26382 0.586091
623 1 0.988974 0.46446 0.573202
1100 2 0.82841 0.421977 0.55256
946 1 0.940407 0.317617 0.555485
869 3 0.989173 0.286984 0.543441
742 2 0.91137 0.310035 0.574209
266 1 0.981078 0.463167 0.53557
529 1 0.825868 0.375628 0.537046
530 3 0.947069 0.479206 0.555121
737 2 0.782045 0.382789 0.590964
189 1 0.78018 0.465395 0.546774
300 2 0.561898 0.180272 0.654244
1043 1 0.62767 0.180622 0.655568
788 1 0.731225 0.168623 0.648481
354 2 0.699167 0.195467 0.6039
441 2 0.633864 0.0155803 0.622069
748 1 0.664815 0.202252 0.622757
875 1 0.604628 0.03862 0.60434
1152 1 0.671105 0.0545377 0.632962
122 5 0.631251 0.0780182 0.658876
46 5 0.732008 0.0264757 0.654557
656 2 0.677511 0.203356 0.643774
1042 2 0.50233 0.119822 0.63008
539 1 0.543119 0.121387 0.64743
1025 1 0.53079 0.146726 0.613012
240 1 0.558839 0.239617 0.605413
601 1 0.551913 0.225959 0.640754
1140 2 0.997918 0.203619 0.635292
1108 5 0.956283 0.0108251 0.607898
932 1 0.822061 0.124408 0.663374
194 5 0.989608 0.101532 0.65841
1182 5 0.866377 0.191119 0.645584
33 5 0.861884 0.0630892 0.641324
383 1 0.965838 0.207474 0.65461
93 1 0.960535 0.233344 0.62051
507 2 0.927743 0.221465 0.602328
666 1 0.866525 0.229903 0.608563
615 1 0.948226 0.0164132 0.641127
975 5 0.924896 0.0907279 0.619779
335 1 0.836998 0.135437 0.619757
292 2 0.821931 0.181559 0.605975
1151 1 0.762404 0.203493 0.610543
448 5 0.752138 0.0820401 0.621411
223 1 0.605727 0.411338 0.639042
933 2 0.632897 0.367374 0.625867
152 1 0.632127 0.379118 0.603997
527 1 0.692902 0.35413 0.633455
471 1 0.733251 0.470345 0.654748
457 2 0.704889 0.327851 0.653237
771 1 0.693475 0.263626 0.64922
600 1 0.570973 0.499977 0.609047
1130 2 0.575052 0.433767 0.656103
641 1 0.525223 0.472604 0.649319
463 2 0.550948 0.267649 0.624011
1009 1 0.595112 0.313265 0.627173
193 1 0.514054 0.39879 0.613857
38 3 0.514028 0.463088 0.607166
453 1 0.942367 0.478974 0.649036
963 1 0.906314 0.383741 0.659139
1080 2 0.892861 0.392398 0.606513
65 1 0.910978 0.363715 0.625072
1132 2 0.898134 0.450126 0.660626
887 2 0.922307 0.337564 0.644628
675 1 0.838135 0.466135 0.653988
498 1 0.985548 0.422086 0.605487
569 1 0.879929 0.288428 0.646023
972 1 0.884217 0.456286 0.608423
1040 1 0.986734 0.327215 0.647042
56 1 0.82956 0.375195 0.604867
301 5 0.795515 0.472498 0.622393
430 5 0.796839 0.30385 0.620684