ITEM: TIMESTEP
1700
ITEM: NUMBER OF ATOMS
1200
ITEM: BOX BOUNDS pp pp pp
-7.6266250050336382e-02 2.5098596345622489e+01
-7.6266250050336382e-02 2.5098596345622489e+01
-2.5251128845723162e+01 5.0273458941295317e+01
ITEM: ATOMS id type xs ys zs
760 1 0.0599493 0.137829 0.397405
419 1 0.251191 0.157122 0.37029
108 1 0.220976 0.0564642 0.358606
96 1 0.0419004 0.0461013 0.382601
635 5 0.282874 0.219189 0.332302
1076 1 0.183508 0.130842 0.340143
1193 1 0.113167 0.11742 0.366872
580 5 0.169754 0.197508 0.364787
269 2 0.0179188 0.2364 0.328011
638 5 0.16723 0.190031 0.315131
390 2 0.0873573 0.0924881 0.385149
645 3 0.150467 0.0770949 0.351697
967 1 0.0701848 0.217095 0.318625
542 1 0.14029 0.0703483 0.394647
804 1 0.234348 0.0154001 0.389618
1149 3 0.24755 0.118447 0.351059
787 1 0.409049 0.246717 0.351572
314 1 0.456995 0.185304 0.382572
590 2 0.482083 0.244215 0.381527
559 1 0.434795 0.0219448 0.355443
973 5 0.409112 0.141987 0.338044
468 2 0.4062 0.14883 0.389913
1174 1 0.300369 0.130528 0.337814
1037 1 0.392532 0.106072 0.373796
432 5 0.337223 0.19069 0.361805
196 2 0.392457 0.0422472 0.370616
762 1 0.114103 0.0195046 0.349004
465 1 0.330516 0.0235922 0.368328
907 1 0.410758 0.013769 0.389239
290 1 0.360805 0.191303 0.394199
1146 5 0.0369685 0.222028 0.374675
26 5 0.287643 0.441909 0.3253
577 2 0.0880528 0.456203 0.364778
82 1 0.194839 0.289243 0.355339
1173 1 0.0498032 0.307411 0.395285
40 5 0.121237 0.324817 0.334571
813 1 0.0271056 0.445986 0.372485
403 5 0.133207 0.341121 0.380213
1071 1 0.240765 0.342151 0.382072
834 1 0.12984 0.466616 0.38147
418 1 0.0205157 0.296607 0.335974
915 1 0.102182 0.400771 0.353678
904 5 0.0174869 0.351254 0.360007
456 1 0.465525 0.342491 0.350631
917 2 0.438431 0.488938 0.390521
935 2 0.433039 0.296825 0.3407
893 5 0.325947 0.280115 0.392755
460 1 0.36105 0.432088 0.344211
1053 1 0.274599 0.368046 0.350046
565 5 0.300612 0.442043 0.378118
346 2 0.245661 0.320394 0.362263
703 2 0.405447 0.470913 0.353755
241 1 0.438913 0.293306 0.383194
373 1 0.397377 0.468684 0.375474
1171 1 0.46615 0.453182 0.349046
409 1 0.467741 0.392628 0.379836
1159 2 0.418034 0.354106 0.384653
412 2 0.336768 0.345262 0.353051
628 1 0.375378 0.329162 0.336218
660 1 0.302409 0.286508 0.359748
151 1 0.369281 0.363267 0.370415
690 3 0.496604 0.400389 0.358838
793 3 0.262996 0.011217 0.368895
929 1 0.481354 0.266563 0.330023
575 1 0.228167 0.492132 0.3919
159 2 0.000167471 0.008449 0.39345
397 2 0.0298577 0.227609 0.471845
885 5 0.177855 0.226245 0.479954
1185 5 0.11137 0.133065 0.486648
88 1 0.0240916 0.166588 0.47878
28 1 0.217035 0.130651 0.48998
62 5 0.246653 0.0363263 0.44543
953 5 0.0864248 0.0367675 0.428444
1060 5 0.138239 0.211874 0.441083
137 5 0.192229 0.106911 0.445152
377 2 0.0444981 0.15775 0.417631
537 1 0.214942 0.0730382 0.417628
15 5 0.0647922 0.071828 0.464659
353 1 0.0507903 0.220844 0.416662
1024 1 0.0800093 0.134649 0.433734
1070 2 0.187127 0.0340873 0.403038
20 1 0.155614 0.0331869 0.456263
86 1 0.414418 0.0127836 0.457744
1054 5 0.0103362 0.336117 0.464478
472 1 0.252313 0.0370575 0.478308
75 1 0.319711 0.107801 0.493711
375 2 0.268407 0.0975578 0.48079
206 1 0.273007 0.237135 0.492137
407 1 0.490776 0.221665 0.498994
247 5 0.425276 0.121337 0.473973
378 2 0.45797 0.0340761 0.443923
516 1 0.453459 0.0981238 0.44404
406 1 0.472002 0.18768 0.427007
91 1 0.431546 0.117785 0.406963
920 2 0.466128 0.123823 0.424921
211 5 0.308712 0.0563861 0.405326
858 1 0.288243 0.189966 0.433974
443 2 0.319936 0.146974 0.445636
14 1 0.338019 0.0947149 0.433951
322 5 0.365916 0.257363 0.424806
968 1 0.279963 0.122882 0.461321
72 1 0.366448 0.177756 0.457203
32 5 0.294171 0.273835 0.458338
922 5 0.36891 0.233997 0.487351
706 1 0.430713 0.488777 0.561049
545 2 0.226955 0.0111716 0.518448
372 1 0.3554 0.345445 0.597586
977 1 0.278959 0.278207 0.525178
1077 3 0.499257 0.497523 0.423088
1017 1 0.0907359 0.239486 0.466343
535 1 0.273588 0.434915 0.527849
687 1 0.498409 0.0874488 0.494989
779 5 0.129151 0.454897 0.475454
227 1 0.437587 0.287303 0.584027
242 1 0.0178456 0.270943 0.488381
754 1 0.0299767 0.448668 0.469158
78 5 0.128277 0.318733 0.480623
34 1 0.233953 0.432581 0.475816
663 1 0.108322 0.368512 0.457379
1079 5 0.244 0.425836 0.413548
435 1 0.182681 0.301709 0.444114
871 3 0.00513733 0.439858 0.489846
208 1 0.218924 0.490327 0.436716
827 1 0.0861764 0.313266 0.429207
689 2 0.135191 0.343359 0.439976
722 1 0.0866787 0.4798 0.441643
1128 2 0.024669 0.462653 0.44825
249 2 0.0816374 0.278009 0.41155
265 1 0.158719 0.390536 0.427288
741 5 0.0897927 0.424997 0.412149
188 5 0.219658 0.324761 0.414854
382 5 0.216824 0.22642 0.417314
533 1 0.140915 0.263201 0.405351
998 1 0.394902 0.358643 0.404585
102 5 0.474899 0.3512 0.452396
1078 1 0.378659 0.423301 0.474621
564 2 0.374436 0.373697 0.48795
139 5 0.259457 0.337032 0.490662
547 1 0.303205 0.487131 0.496316
561 1 0.353362 0.32306 0.476532
256 2 0.251229 0.489743 0.48395
447 2 0.483519 0.409115 0.491593
4 1 0.437198 0.365929 0.49511
204 1 0.460283 0.463301 0.500863
608 1 0.456703 0.459548 0.408874
696 5 0.451576 0.2319 0.458119
996 1 0.457713 0.28905 0.430615
1039 5 0.250014 0.370434 0.448868
109 1 0.312704 0.342356 0.425638
694 1 0.31702 0.461304 0.450061
494 2 0.360521 0.384548 0.420453
308 1 0.392018 0.401345 0.438537
633 1 0.338362 0.437325 0.411535
410 2 0.377717 0.445895 0.454301
340 1 0.371348 0.470903 0.592603
966 1 0.382704 0.443754 0.531714
784 2 0.438821 0.463851 0.54123
309 5 0.278268 0.146004 0.400597
550 1 0.142637 0.111644 0.517578
574 5 0.052189 0.121002 0.504689
1155 1 0.114447 0.216041 0.506357
520 2 0.202026 0.129214 0.511238
811 1 0.236399 0.0778958 0.518838
643 1 0.219362 0.188666 0.517706
785 1 0.116856 0.0827645 0.583081
857 1 0.211756 0.0575859 0.579668
303 1 0.484071 0.416994 0.54047
114 2 0.240195 0.0185556 0.593791
1089 1 0.0148594 0.0735283 0.589798
1006 1 0.0618506 0.129267 0.544301
738 3 0.0822136 0.217198 0.590246
647 2 0.172293 0.108627 0.575785
192 1 0.168427 0.12216 0.554469
632 1 0.0296005 0.17676 0.585696
897 2 0.0683144 0.0406966 0.585527
826 3 0.119553 0.0986994 0.539306
680 1 0.113293 0.0305953 0.542202
548 1 0.193227 0.158835 0.588736
803 5 0.201527 0.209373 0.549162
219 1 0.121124 0.231343 0.571812
10 1 0.269424 0.228863 0.588214
558 5 0.267418 0.323512 0.599754
100 2 0.329904 0.410271 0.525325
479 1 0.450058 0.0109838 0.424282
296 1 0.0705041 0.0161987 0.497352
23 1 0.362701 0.0862838 0.526539
298 2 0.271567 0.225226 0.513134
101 1 0.317704 0.18172 0.517323
854 2 0.352424 0.13012 0.511089
470 2 0.457951 0.188919 0.514719
413 1 0.431895 0.230085 0.529194
684 1 0.477931 0.0179315 0.52261
833 1 0.409385 0.15776 0.505608
81 1 0.414079 0.0199423 0.590734
961 2 0.441797 0.0783069 0.589239
900 3 0.422689 0.220351 0.592989
945 5 0.478994 0.204096 0.555615
42 1 0.483754 0.1888 0.587427
1161 1 0.428581 0.0978875 0.569056
1066 5 0.380775 0.159032 0.551227
596 1 0.291671 0.167754 0.560945
1199 2 0.31083 0.219919 0.572159
220 1 0.30395 0.022336 0.590857
646 5 0.280628 0.0860156 0.545343
837 5 0.38454 0.028757 0.55264
438 1 0.366994 0.205676 0.580445
1117 5 0.122663 0.352752 0.592998
518 1 0.0672114 0.283018 0.596246
1001 2 0.132464 0.270612 0.515782
92 1 0.0817822 0.312511 0.512573
916 1 0.0367287 0.473894 0.507296
605 1 0.181936 0.30032 0.507192
424 2 0.0215312 0.314798 0.504164
798 5 0.196639 0.407962 0.511326
1013 1 0.339207 0.383161 0.505859
317 3 0.219307 0.461674 0.583958
611 1 0.227542 0.340867 0.54811
215 1 0.191024 0.422876 0.567842
367 5 0.0477295 0.396422 0.527994
366 1 0.0465754 0.288297 0.554189
759 1 0.138616 0.333605 0.564561
231 2 0.109241 0.278939 0.557587
153 1 0.135994 0.266532 0.53792
395 5 0.368365 0.00807557 0.510217
127 1 0.138597 0.400231 0.53788
352 1 0.061677 0.466576 0.594012
174 2 0.175235 0.375857 0.553339
439 5 0.0961376 0.462572 0.561826
364 1 0.0101403 0.372841 0.49589
652 5 0.399941 0.297945 0.549811
392 1 0.00554306 0.409995 0.437898
1099 1 0.41415 0.38034 0.571381
952 2 0.423692 0.496893 0.582447
812 2 0.415078 0.346841 0.590126
1118 1 0.271535 0.422346 0.593934
943 5 0.489534 0.333082 0.521201
1057 1 0.30526 0.27122 0.558349
1194 5 0.316986 0.413479 0.567525
861 1 0.481815 0.483788 0.592211
105 2 0.282837 0.313511 0.542954
1105 1 0.326951 0.361542 0.5407
474 1 0.168439 0.000866196 0.509484
851 1 0.417056 0.495719 0.453482
976 5 0.493055 0.377165 0.416027
130 5 0.00944466 0.335679 0.579782
557 2 0.498586 0.24499 0.423047
930 2 0.493556 0.0257341 0.501727
1059 1 0.00255067 0.473445 0.405032
348 5 0.486838 0.328952 0.556841
123 1 0.240816 0.161519 0.652715
610 1 0.250079 0.179472 0.617824
1131 5 0.154056 0.0193686 0.673385
142 1 0.156369 0.11425 0.674569
711 5 0.128032 0.0673284 0.622219
700 1 0.143986 0.149197 0.641065
359 1 0.208646 0.0671851 0.648648
1126 1 0.107884 0.191911 0.611135
47 2 0.109654 0.198275 0.632818
94 1 0.0518491 0.205227 0.641449
230 2 0.185712 0.125666 0.655785
1108 5 0.00676347 0.0318426 0.618633
986 1 0.229044 0.0349378 0.615119
1111 1 0.0824502 0.00185087 0.601724
162 1 0.0188522 0.122765 0.62505
1094 2 0.254928 0.0472039 0.63515
1072 1 0.441479 0.153312 0.641431
753 1 0.483145 0.0558787 0.633609
209 1 0.416318 0.222345 0.615399
255 1 0.339073 0.19091 0.637085
365 1 0.292196 0.099208 0.632521
111 2 0.403939 0.203275 0.635823
651 2 0.283192 0.161557 0.635837
415 1 0.420164 0.115871 0.60493
525 2 0.472753 0.365075 0.626662
1042 2 0.492479 0.119792 0.635737
1085 2 0.10817 0.485429 0.608058
344 1 0.452388 0.36508 0.605973
458 1 0.14709 0.247166 0.637802
51 1 0.156451 0.408294 0.653611
343 1 0.238322 0.306007 0.63365
1114 2 0.180933 0.291017 0.625816
1145 1 0.0630467 0.3633 0.645013
1183 5 0.215515 0.347517 0.662573
870 1 0.145601 0.345933 0.624196
631 1 0.09777 0.440228 0.624083
1069 2 0.11708 0.389972 0.637498
639 5 0.250695 0.458651 0.664416
551 1 0.189234 0.259056 0.607291
136 5 0.0061126 0.316705 0.617783
1000 1 0.345227 0.414143 0.659924
54 1 0.401113 0.483468 0.642575
71 2 0.376563 0.424649 0.641758
999 1 0.41356 0.249379 0.650137
31 5 0.328964 0.297674 0.633352
607 2 0.318121 0.45376 0.604812
202 5 0.407825 0.336449 0.673598
956 1 0.341085 0.426587 0.623808
1150 1 0.42406 0.377904 0.639443
50 5 0.105783 0.491235 0.662667
337 5 0.00133918 0.432616 0.636036
69 2 0.218647 0.206784 0.600471
991 5 0.329579 0.121408 0.600247
556 1 0.16644 0.475293 0.600207
370 1 0.0944683 0.512343 0.353814
388 1 0.227237 0.744159 0.389301
1136 1 0.172731 0.727751 0.361113
853 5 0.135343 0.802658 0.396533
634 2 0.493811 0.901331 0.380417
1101 1 0.154405 0.562566 0.379276
763 1 0.0716895 0.74794 0.356477
708 1 0.102188 0.645069 0.35804
85 1 0.0434902 0.578912 0.377076
839 2 0.114517 0.709557 0.364765
572 2 0.169314 0.509393 0.391627
1144 3 0.102539 0.575267 0.364782
914 1 0.487992 0.943013 0.395912
1135 1 0.104018 0.703698 0.387242
429 5 0.204259 0.641513 0.382205
734 5 0.324628 0.689181 0.38364
919 1 0.411816 0.544532 0.397548
1033 1 0.410203 0.644638 0.342525
1064 1 0.479555 0.593078 0.361604
918 1 0.400548 0.53503 0.349882
715 2 0.41678 0.59716 0.356863
579 1 0.385662 0.613306 0.374849
124 2 0.396791 0.608622 0.396381
668 5 0.458634 0.698943 0.321996
84 3 0.230551 0.767855 0.366819
9 1 0.492479 0.509453 0.38104
1122 1 0.260376 0.94145 0.362282
1088 2 0.212064 0.901391 0.367472
286 1 0.216025 0.834464 0.366231
797 1 0.194052 0.909518 0.389782
89 1 0.164114 0.930358 0.355794
750 5 0.291276 0.836253 0.342067
416 1 0.0519276 0.932171 0.352013
6 5 0.0416765 0.839612 0.359065
519 2 0.105589 0.962314 0.358287
747 1 0.108533 0.959342 0.379688
500 5 0.46396 0.94231 0.329061
679 1 0.289091 0.878628 0.39055
404 1 0.294843 0.755263 0.36064
176 5 0.391597 0.737628 0.353973
697 5 0.363257 0.924419 0.37864
758 1 0.43944 0.86448 0.380948
52 5 0.353539 0.811252 0.384516
985 5 0.318739 0.520398 0.398248
815 2 0.133155 0.933671 0.397723
422 5 0.00454472 0.687917 0.363329
1007 1 0.155839 0.605397 0.481044
12 5 0.0835298 0.719587 0.477862
1157 1 0.0808974 0.638884 0.460928
844 2 0.227631 0.754789 0.486501
531 1 0.213772 0.732111 0.426465
718 1 0.250981 0.637357 0.424633
620 2 0.19622 0.67057 0.429902
135 1 0.182825 0.658423 0.450077
1058 1 0.150488 0.655654 0.415987
670 1 0.147312 0.566804 0.447127
444 1 0.14541 0.520295 0.411437
445 3 0.151703 0.508998 0.434462
994 5 0.0402438 0.583648 0.437534
446 1 0.041876 0.659199 0.412392
1137 2 0.0967244 0.689727 0.408336
1169 2 0.140967 0.618136 0.460167
221 2 0.289064 0.824779 0.581407
11 1 0.165137 0.748266 0.487514
685 2 0.00711369 0.505972 0.523674
1112 3 0.192587 0.581381 0.498406
310 5 0.287643 0.909708 0.545022
739 5 0.0608073 0.550553 0.405649
45 1 0.199257 0.513195 0.494702
1083 1 0.328917 0.640615 0.477689
213 5 0.358196 0.536713 0.479553
1002 1 0.260903 0.52855 0.466356
1018 2 0.297404 0.652583 0.496311
349 1 0.26021 0.70509 0.495523
1197 2 0.451094 0.750246 0.468257
749 1 0.400965 0.707344 0.466211
554 5 0.43972 0.664479 0.495333
238 1 0.479612 0.557391 0.43195
501 5 0.468689 0.660405 0.435443
499 1 0.410385 0.734165 0.429025
528 1 0.422571 0.607879 0.462863
1049 3 0.456935 0.552943 0.453602
1031 1 0.344293 0.645096 0.442696
789 1 0.305778 0.554719 0.435256
562 1 0.319353 0.746089 0.410245
847 1 0.34525 0.615974 0.409021
911 2 0.311407 0.615385 0.428049
740 2 0.273797 0.508654 0.446018
1038 2 0.372132 0.649941 0.461828
1156 3 0.249029 0.762373 0.409529
637 1 0.15299 0.98149 0.410611
426 1 0.0689597 0.858982 0.467089
1087 1 0.1337 0.956892 0.479582
167 5 0.148781 0.862656 0.484532
374 1 0.242286 0.906641 0.484388
705 2 0.23924 0.915498 0.444411
603 1 0.245587 0.926142 0.422343
475 5 0.0314024 0.908438 0.42811
823 5 0.169409 0.79304 0.446902
180 5 0.113662 0.866924 0.438455
35 1 0.0991869 0.744195 0.420972
594 1 0.177335 0.93102 0.449049
988 2 0.134642 0.97136 0.458485
252 1 0.00797238 0.93105 0.487351
892 1 0.0763872 0.969622 0.44983
997 5 0.0327668 0.771508 0.441414
334 1 0.107615 0.884076 0.40742
434 1 0.239516 0.809811 0.497759
234 3 0.356727 0.978998 0.591692
592 1 0.362592 0.835034 0.53634
70 2 0.0173721 0.871126 0.478972
342 5 0.142348 0.505934 0.535403
257 3 0.0043083 0.999585 0.492362
183 2 0.244352 0.887762 0.405017
941 1 0.346254 0.96992 0.481736
764 1 0.332393 0.833361 0.471625
881 1 0.250368 0.765581 0.466784
1015 3 0.274635 0.97003 0.481518
294 1 0.429088 0.916488 0.470277
293 1 0.4591 0.761676 0.489478
1062 5 0.49612 0.795642 0.404984
874 2 0.407459 0.974079 0.474935
140 1 0.37963 0.826269 0.416226
699 1 0.383784 0.930484 0.410454
958 3 0.39067 0.862127 0.463548
325 1 0.434486 0.809618 0.461021
277 1 0.461747 0.878579 0.427777
898 3 0.434718 0.976656 0.405667
356 2 0.398782 0.882607 0.424157
1034 1 0.369671 0.889334 0.443051
226 1 0.276119 0.954163 0.455917
138 1 0.323406 0.780779 0.441887
513 2 0.288862 0.807744 0.457528
980 5 0.345053 0.995604 0.43358
144 2 0.360132 0.76979 0.424691
942 1 0.251352 0.853239 0.448675
386 1 0.226967 0.830356 0.413014
318 1 0.0125295 0.827506 0.494665
1189 5 0.170136 0.703602 0.519725
549 1 0.0613457 0.674833 0.529494
1147 5 0.0775073 0.611968 0.507034
665 2 0.0117898 0.717589 0.528344
657 1 0.165121 0.595684 0.519206
618 5 0.241091 0.534169 0.526555
655 5 0.235921 0.6522 0.535106
120 1 0.227649 0.608823 0.566054
910 5 0.108391 0.619815 0.546883
182 1 0.144697 0.547637 0.56955
39 1 0.0514753 0.521878 0.538889
616 1 0.0337897 0.634124 0.576304
506 1 0.137905 0.639165 0.583993
1142 5 0.0502999 0.538323 0.57064
820 2 0.0780265 0.667132 0.58712
751 1 0.16546 0.725293 0.553919
145 1 0.0834754 0.725502 0.577413
1061 2 0.179351 0.591199 0.57941
544 1 0.215205 0.576802 0.597826
7 1 0.00189514 0.732439 0.507862
1180 5 0.371268 0.735722 0.593315
307 2 0.367448 0.702887 0.526023
678 1 0.345518 0.661875 0.510342
568 5 0.343548 0.560728 0.515781
168 1 0.25842 0.604262 0.501846
978 2 0.465729 0.525693 0.507842
283 1 0.407661 0.745063 0.517259
387 1 0.42121 0.564321 0.50029
581 1 0.411099 0.665214 0.537679
902 1 0.408074 0.672151 0.57161
181 1 0.423268 0.562436 0.584166
1170 2 0.436625 0.699343 0.554994
541 5 0.41312 0.572016 0.550179
281 1 0.306505 0.568756 0.546534
79 1 0.316878 0.721312 0.537198
1 1 0.323951 0.594902 0.579968
143 1 0.258353 0.511857 0.572709
1028 3 0.386109 0.618744 0.584681
534 2 0.281519 0.568488 0.566295
886 5 0.259149 0.711153 0.5654
268 1 0.456673 0.515948 0.529158
1023 1 0.286356 0.875195 0.59421
862 1 0.017965 0.98193 0.53753
949 5 0.0174392 0.879728 0.523683
490 5 0.108628 0.838752 0.527858
1050 1 0.0947099 0.917214 0.509025
170 1 0.0281989 0.987843 0.411356
576 2 0.117047 0.971729 0.499792
246 1 0.209903 0.887868 0.518618
702 1 0.0276449 0.773352 0.539922
841 5 0.23605 0.797221 0.535275
1116 1 0.21959 0.956118 0.591572
1141 1 0.236128 0.993092 0.539055
262 1 0.17251 0.7588 0.587379
727 3 0.0837868 0.878501 0.566722
860 2 0.0743151 0.98331 0.548299
451 5 0.178094 0.981963 0.561837
405 1 0.0981067 0.90689 0.586967
765 1 0.117024 0.81979 0.563484
399 5 0.196914 0.899607 0.547807
376 1 0.106359 0.927525 0.551401
482 1 0.0196878 0.862283 0.559934
567 2 0.135769 0.758847 0.569505
816 1 0.250251 0.836353 0.565045
1115 1 0.284923 0.771433 0.592991
1113 1 0.493304 0.810645 0.520841
1011 2 0.250185 0.872421 0.502438
1184 1 0.31087 0.879646 0.5101
495 1 0.397528 0.929688 0.526034
1093 2 0.369945 0.87525 0.518442
41 1 0.27204 0.984364 0.506213
511 1 0.40882 0.841997 0.505328
83 2 0.445326 0.788854 0.508203
368 2 0.390032 0.818393 0.555077
414 1 0.45614 0.969098 0.555775
719 3 0.459784 0.959834 0.532663
1095 1 0.455835 0.767955 0.587238
315 1 0.419175 0.761044 0.552127
484 1 0.43252 0.867074 0.556945
450 2 0.429004 0.925062 0.567987
360 1 0.450367 0.912272 0.588511
731 1 0.348954 0.822376 0.571935
905 1 0.366211 0.941017 0.570904
598 1 0.443653 0.648056 0.401163
877 1 0.444706 0.998152 0.490754
640 1 0.0595519 0.999983 0.569066
913 5 0.101079 0.656125 0.669231
68 1 0.214365 0.553258 0.631863
852 2 0.24798 0.693939 0.664406
908 1 0.344869 0.901007 0.641835
329 1 0.223178 0.648031 0.650848
950 2 0.184316 0.598001 0.644412
710 1 0.229567 0.752628 0.656238
1166 1 0.224992 0.68265 0.683284
627 1 0.0358881 0.594215 0.673471
819 1 0.0685535 0.657215 0.608211
1020 1 0.0438716 0.748671 0.640523
609 2 0.081363 0.607704 0.62256
704 1 0.159692 0.567912 0.660993
891 1 0.0966573 0.549972 0.613395
455 1 0.135051 0.627259 0.633369
955 1 0.0348034 0.60025 0.6375
393 5 0.12604 0.607998 0.690994
906 2 0.00623444 0.574817 0.655749
1104 1 0.0124739 0.510849 0.653153
99 2 0.493279 0.923273 0.604146
282 5 0.477559 0.648405 0.629382
459 1 0.0477377 0.725898 0.675804
437 5 0.30465 0.677695 0.698231
483 1 0.460525 0.540864 0.622454
1008 1 0.418805 0.721563 0.64837
1191 1 0.47573 0.73939 0.619252
1074 2 0.420722 0.543371 0.640124
106 1 0.450123 0.562116 0.657683
119 1 0.382446 0.641728 0.606564
125 1 0.313227 0.691805 0.665216
1125 2 0.250277 0.55839 0.613919
186 2 0.353708 0.721713 0.651052
923 1 0.289051 0.607582 0.618936
733 1 0.288814 0.508459 0.611301
927 1 0.338625 0.693034 0.63226
363 1 0.378796 0.591538 0.635768
129 2 0.345053 0.633851 0.623501
521 1 0.188959 0.851202 0.603316
132 1 0.342228 0.786021 0.655465
867 5 0.382167 0.857547 0.602361
1103 2 0.466371 0.99355 0.638426
937 3 0.242053 0.919473 0.646388
442 2 0.232041 0.901395 0.603168
1167 2 0.217563 0.797389 0.640349
588 1 0.19343 0.767449 0.623012
653 1 0.240764 0.924964 0.623623
80 1 0.176553 0.848162 0.644744
712 1 0.101603 0.79297 0.6118
1067 2 0.164258 0.792981 0.605854
502 2 0.0116005 0.869828 0.648193
802 2 0.0441255 0.78335 0.622152
244 3 0.131627 0.903885 0.643302
324 1 0.177963 0.948927 0.651386
1124 2 0.0741463 0.935966 0.604455
1003 1 0.0687924 0.89109 0.654401
60 1 0.103119 0.922318 0.623112
345 1 0.0224466 0.842332 0.628125
1123 1 0.347596 0.961716 0.614228
205 5 0.351809 0.879999 0.672548
104 5 0.186542 0.877642 0.68434
177 3 0.339099 0.832407 0.63729
217 1 0.272919 0.824026 0.632316
960 1 0.260426 0.887045 0.665206
1110 2 0.349927 0.963193 0.635841
1014 1 0.402637 0.991279 0.643448
1106 1 0.390082 0.802671 0.626543
338 1 0.483023 0.80716 0.643856
838 1 0.469906 0.951817 0.621927
491 2 0.440468 0.767689 0.634505
1046 1 0.006689 0.928888 0.6026
440 5 0.240074 0.699649 0.60968
1065 2 0.0111969 0.752045 0.660024
236 1 0.000737948 0.756235 0.60765
931 1 0.294868 0.998063 0.641609
285 1 0.700777 0.145308 0.391929
725 1 0.634232 0.0690484 0.365134
464 1 0.693193 0.120313 0.341228
1178 2 0.702203 0.192739 0.378543
1092 2 0.687165 0.0664055 0.352788
810 1 0.741297 0.0612351 0.365333
1016 5 0.538463 0.136271 0.371212
321 1 0.536092 0.0339601 0.371253
934 1 0.516963 0.244822 0.362624
1148 2 0.597703 0.0332385 0.378859
757 1 0.507896 0.166762 0.339568
328 2 0.521418 0.229044 0.341235
688 1 0.693165 0.231872 0.33844
840 1 0.601726 0.0612158 0.3991
984 1 0.64961 0.210284 0.367285
121 5 0.551628 0.0905161 0.32672
267 1 0.585753 0.233958 0.338397
799 2 0.752436 0.305655 0.392629
903 1 0.683715 0.0158453 0.340254
807 5 0.567702 0.418084 0.325292
1026 1 0.749519 0.184841 0.364227
649 1 0.651352 0.473314 0.399385
1073 2 0.803021 0.0685442 0.370599
818 2 0.840896 0.115399 0.334667
330 1 0.899839 0.145236 0.330881
540 5 0.841297 0.180077 0.377155
957 1 0.944108 0.0358044 0.397716
992 5 0.939572 0.0827568 0.371767
288 2 0.935862 0.198796 0.333435
1068 1 0.791301 0.152351 0.330636
990 1 0.837042 0.104235 0.35616
107 1 0.837858 0.0592121 0.324141
585 3 0.735077 0.176833 0.340967
389 1 0.96259 0.226243 0.315994
341 1 0.932919 0.418345 0.38461
1163 1 0.810967 0.0966533 0.390525
1045 1 0.827582 0.309182 0.354337
845 1 0.529042 0.00931753 0.336292
555 1 0.760598 0.398815 0.34521
497 5 0.732839 0.476129 0.327324
1032 1 0.830512 0.00738268 0.370671
940 1 0.58026 0.346499 0.386424
729 1 0.629176 0.306779 0.358235
16 2 0.638524 0.248324 0.350142
396 1 0.741877 0.458147 0.381752
254 2 0.677094 0.460246 0.380094
77 1 0.651809 0.405654 0.371425
774 1 0.562485 0.391272 0.356403
1192 2 0.606747 0.361346 0.368113
428 1 0.637251 0.488089 0.332268
477 5 0.965821 0.401774 0.32767
822 5 0.609109 0.257329 0.393826
732 2 0.806391 0.449246 0.384517
676 1 0.74943 0.338363 0.374448
692 2 0.789779 0.361956 0.358852
745 3 0.897928 0.407235 0.365292
1010 1 0.890392 0.265431 0.379503
1096 1 0.719788 0.247263 0.390585
436 1 0.902463 0.445785 0.346683
299 1 0.920907 0.342501 0.359846
1200 1 0.829829 0.402664 0.37122
261 1 0.905254 0.243575 0.345249
947 2 0.887453 0.290316 0.358545
686 2 0.977369 0.465732 0.385455
835 1 0.973515 0.0186424 0.349362
921 5 0.947032 0.0557419 0.320503
614 1 0.994476 0.192449 0.343957
297 1 0.81571 0.300595 0.398071
1175 1 0.580095 0.164555 0.399088
467 2 0.876213 0.276457 0.399938
1019 5 0.536463 0.120862 0.466624
1030 2 0.542455 0.25285 0.490307
146 1 0.579712 0.207637 0.480566
691 1 0.632089 0.125565 0.489731
713 1 0.649186 0.0260144 0.499035
613 2 0.639057 0.181044 0.4784
179 1 0.687207 0.215664 0.487462
469 5 0.736812 0.0562793 0.483694
783 1 0.66545 0.0627737 0.454869
2 1 0.629044 0.119799 0.426815
454 1 0.654189 0.16521 0.457991
401 5 0.748308 0.204175 0.454688
128 5 0.597211 0.0194051 0.467628
489 1 0.729605 0.129153 0.43626
864 2 0.671343 0.116886 0.443831
795 5 0.682258 0.194152 0.417268
3 2 0.585661 0.112747 0.411293
30 1 0.526223 0.0978565 0.419338
115 1 0.510258 0.251696 0.401943
250 2 0.534002 0.173721 0.599577
487 5 0.500952 0.0598667 0.551337
736 5 0.82454 0.0312721 0.595051
664 1 0.645722 0.491233 0.433183
770 1 0.51409 0.020439 0.452162
693 5 0.779969 0.245859 0.491143
478 1 0.790433 0.130642 0.477546
682 5 0.949631 0.111596 0.494259
253 5 0.886968 0.0290701 0.468666
622 2 0.8472 0.162742 0.476991
493 5 0.889558 0.11232 0.407763
116 1 0.869246 0.172302 0.497024
199 5 0.840109 0.0194351 0.410041
683 1 0.986737 0.239631 0.45602
782 1 0.838172 0.221077 0.46817
582 5 0.918326 0.184471 0.440382
1179 5 0.977499 0.122267 0.454976
522 5 0.779465 0.175499 0.412857
214 1 0.869871 0.218165 0.408578
829 1 0.888833 0.130645 0.464841
95 5 0.796949 0.0766316 0.450752
672 1 0.742586 0.254802 0.427829
737 2 0.766943 0.381862 0.585587
218 5 0.601998 0.369736 0.470471
1052 5 0.695664 0.302358 0.482065
1168 5 0.7436 0.438227 0.490706
546 2 0.596761 0.290671 0.441809
721 5 0.607549 0.38821 0.413417
593 3 0.661476 0.482253 0.455107
433 1 0.714735 0.344928 0.442762
312 1 0.639696 0.292936 0.424936
1004 2 0.749575 0.388326 0.453142
44 2 0.704504 0.305236 0.426151
57 1 0.633353 0.279566 0.458846
37 1 0.723589 0.338037 0.408662
669 1 0.708257 0.43392 0.459176
767 1 0.599628 0.469491 0.465624
586 1 0.571195 0.349321 0.442179
536 1 0.522286 0.46272 0.440628
1133 1 0.551602 0.248799 0.435866
863 2 0.535962 0.470314 0.460956
591 5 0.98595 0.371909 0.4065
1044 1 0.576701 0.000345955 0.569309
880 1 0.502109 0.424257 0.471805
172 1 0.669622 0.492545 0.54039
1091 1 0.777436 0.368226 0.47123
761 3 0.838545 0.368296 0.483597
476 5 0.906078 0.279485 0.473572
357 2 0.877149 0.477926 0.497343
263 1 0.891111 0.362969 0.468216
1138 1 0.938364 0.460243 0.492758
735 1 0.837308 0.426855 0.495897
636 1 0.87135 0.48504 0.433021
674 1 0.817624 0.438735 0.406151
64 2 0.815183 0.457103 0.426874
131 1 0.913433 0.313492 0.412516
1021 5 0.835854 0.258743 0.436562
1190 5 0.916779 0.398057 0.426028
1035 5 0.902972 0.448199 0.460108
103 1 0.799383 0.408981 0.439799
200 2 0.999638 0.14457 0.543777
517 5 0.703608 0.0584592 0.400125
604 5 0.972328 0.315233 0.435923
1121 2 0.565096 0.145053 0.528456
801 1 0.565148 0.483896 0.548187
164 1 0.589896 0.0925904 0.519806
58 1 0.691984 0.110132 0.517573
901 2 0.642183 0.08615 0.506347
304 1 0.59709 0.199707 0.524658
1041 1 0.572833 0.131469 0.549758
936 1 0.713411 0.0347973 0.593259
1139 1 0.651247 0.0922941 0.56914
53 1 0.694576 0.141759 0.594777
626 2 0.61136 0.144077 0.566146
210 5 0.722691 0.0650458 0.541282
339 2 0.702314 0.089172 0.582551
43 5 0.706317 0.202281 0.530376
369 1 0.648262 0.195317 0.560991
971 1 0.678224 0.247104 0.590549
830 1 0.581871 0.156377 0.585525
350 2 0.556263 0.0229384 0.589192
828 5 0.688472 0.010385 0.431448
1195 1 0.507674 0.0655605 0.589778
394 1 0.982572 0.0320107 0.474036
1154 5 0.780994 0.135975 0.511818
515 5 0.884553 0.0909665 0.525243
408 1 0.976892 0.117062 0.525515
384 5 0.901829 0.21139 0.523565
224 1 0.803033 0.044519 0.518391
1198 1 0.801875 0.179171 0.551861
157 1 0.914332 0.0429348 0.580216
1005 1 0.853506 0.0902634 0.55942
332 1 0.972173 0.128692 0.562979
1187 2 0.889158 0.0376754 0.560742
809 2 0.984954 0.129235 0.583901
118 2 0.80856 0.131183 0.566162
147 1 0.924808 0.0245192 0.543866
570 1 0.938198 0.150185 0.597294
466 1 0.519031 0.296116 0.476733
273 1 0.82918 0.158698 0.584606
228 1 0.756063 0.098403 0.571
786 2 0.995317 0.452743 0.59302
794 1 0.960051 0.00604348 0.510217
677 1 0.988721 0.207725 0.540116
1109 1 0.502719 0.156211 0.52533
73 2 0.596312 0.266265 0.526653
152 1 0.629191 0.362384 0.595372
895 1 0.541133 0.393855 0.500777
427 2 0.598586 0.407557 0.50943
509 1 0.593128 0.394015 0.530182
878 1 0.570855 0.280119 0.506942
924 1 0.605181 0.472932 0.507617
235 1 0.653642 0.296354 0.52824
279 1 0.647976 0.375093 0.501205
56 1 0.816517 0.374518 0.599229
948 3 0.691973 0.350131 0.518414
431 2 0.688609 0.466686 0.584129
379 2 0.72217 0.469861 0.531975
720 1 0.741034 0.260083 0.558416
890 1 0.729042 0.426674 0.594953
831 2 0.621748 0.372796 0.573971
98 1 0.735066 0.328926 0.582353
203 2 0.697827 0.28143 0.572812
716 1 0.713568 0.408125 0.527438
391 1 0.660364 0.42484 0.570867
351 1 0.646749 0.316738 0.565529
189 1 0.778488 0.473205 0.542658
1119 3 0.552732 0.417988 0.546972
1056 1 0.551802 0.277594 0.541302
850 1 0.562401 0.382571 0.566471
1081 5 0.566827 0.260818 0.572877
746 1 0.983452 0.139884 0.420804
869 3 0.986875 0.275184 0.543289
612 1 0.750146 0.319608 0.511249
884 1 0.826143 0.277692 0.533307
843 5 0.920256 0.384848 0.521214
488 1 0.981965 0.306054 0.521678
825 2 0.811505 0.326327 0.519115
133 1 0.848078 0.322168 0.501448
18 1 0.790842 0.403509 0.566943
982 3 0.80572 0.249274 0.553344
1102 1 0.877893 0.442871 0.553133
769 1 0.843892 0.277103 0.570448
291 1 0.905664 0.35255 0.584745
1158 1 0.926302 0.256867 0.58942
623 1 0.979651 0.439452 0.572668
1100 2 0.818334 0.426014 0.547751
946 1 0.932875 0.292282 0.555364
742 2 0.903761 0.295195 0.574042
266 1 0.973032 0.459012 0.534377
529 1 0.818896 0.380338 0.53195
530 3 0.940939 0.468809 0.555516
726 1 0.841923 0.00147101 0.442188
944 1 0.642879 0.492655 0.597457
1055 5 0.578094 0.000274441 0.532091
300 2 0.588772 0.172994 0.649817
1043 1 0.649168 0.179392 0.655229
788 1 0.748774 0.169983 0.647344
354 2 0.696945 0.200044 0.604102
441 2 0.627548 0.0161966 0.619523
748 1 0.671509 0.200293 0.624123
875 1 0.604109 0.0444612 0.601747
1152 1 0.65627 0.0530198 0.633678
122 5 0.708487 0.0852603 0.664783
656 2 0.69824 0.20631 0.644408
539 1 0.542716 0.130475 0.650229
1025 1 0.524145 0.140422 0.617543
240 1 0.552575 0.233105 0.607496
601 1 0.567366 0.228275 0.641869
448 5 0.755119 0.0634155 0.630035
615 1 0.932239 0.00968341 0.637715
932 1 0.826509 0.0467459 0.65463
194 5 0.948633 0.0765335 0.660921
33 5 0.843259 0.136316 0.649242
383 1 0.955806 0.166365 0.6511
93 1 0.968105 0.217412 0.621478
666 1 0.865991 0.208955 0.612004
975 5 0.914467 0.0624013 0.611719
335 1 0.826657 0.11152 0.615687
292 2 0.818865 0.168136 0.606437
1151 1 0.761844 0.202492 0.607254
1140 2 0.997212 0.17485 0.634529
507 2 0.92794 0.211239 0.604557
355 1 0.727348 0.38693 0.648718
46 5 0.851439 0.0149057 0.689392
223 1 0.627982 0.411234 0.625653
933 2 0.64581 0.354719 0.615904
642 2 0.729963 0.44849 0.642646
527 1 0.705165 0.333813 0.619777
457 2 0.734965 0.3276 0.639835
771 1 0.709443 0.273221 0.647133
1130 2 0.575623 0.442364 0.634056
641 1 0.579802 0.454728 0.65475
463 2 0.556918 0.269186 0.625182
1009 1 0.608594 0.310246 0.625735
193 1 0.521261 0.409294 0.630075
471 1 0.694288 0.497176 0.645616
430 5 0.815 0.278943 0.60305
1182 5 0.919173 0.227429 0.669998
1080 2 0.882495 0.37571 0.603573
972 1 0.881881 0.434951 0.612373
1040 1 0.893625 0.299219 0.653327
963 1 0.854814 0.397549 0.643108
569 1 0.79595 0.314713 0.637494
65 1 0.88404 0.333973 0.619266
1132 2 0.84856 0.452105 0.631069
887 2 0.858777 0.333654 0.639886
675 1 0.784329 0.458658 0.632209
498 1 0.986559 0.402556 0.606004
600 1 0.568884 0.496093 0.621683