ITEM: TIMESTEP
2100
ITEM: NUMBER OF ATOMS
1200
ITEM: BOX BOUNDS pp pp pp
-7.6266250050336382e-02 2.5098596345622489e+01
-7.6266250050336382e-02 2.5098596345622489e+01
-2.5251128845723162e+01 5.0273458941295317e+01
ITEM: ATOMS id type xs ys zs
760 1 0.0698733 0.138831 0.395497
419 1 0.236675 0.143761 0.370681
108 1 0.223999 0.0420377 0.362199
96 1 0.041425 0.0464271 0.384207
1076 1 0.187243 0.104281 0.338894
1193 1 0.105464 0.103185 0.363442
580 5 0.190962 0.208409 0.35643
269 2 0.0154044 0.240319 0.335678
638 5 0.134765 0.160745 0.317309
390 2 0.0899782 0.0883658 0.383374
645 3 0.159 0.0615274 0.354501
967 1 0.0643012 0.21094 0.326795
542 1 0.141278 0.0595409 0.392259
804 1 0.233923 0.00930312 0.396036
1149 3 0.245444 0.103459 0.35212
762 1 0.127075 0.000650683 0.353702
1146 5 0.0242417 0.249729 0.374952
992 5 0.0352632 0.078698 0.342953
635 5 0.302476 0.204417 0.334967
787 1 0.400347 0.239689 0.353465
314 1 0.446097 0.178461 0.389719
590 2 0.48168 0.228967 0.384597
559 1 0.428927 0.0332339 0.358811
973 5 0.429398 0.139688 0.344519
468 2 0.391866 0.148157 0.394754
1174 1 0.302816 0.112445 0.340785
1037 1 0.375179 0.104871 0.379203
432 5 0.32072 0.177237 0.365309
196 2 0.388132 0.0424419 0.374987
465 1 0.330622 0.0115338 0.373939
907 1 0.419717 0.0158991 0.391501
624 3 0.493933 0.00484285 0.357273
929 1 0.482435 0.245653 0.333613
309 5 0.280132 0.108269 0.397491
151 1 0.38015 0.35038 0.36681
575 1 0.213171 0.494855 0.391395
26 5 0.205943 0.42106 0.340542
577 2 0.0857197 0.472884 0.363666
82 1 0.198212 0.331493 0.346191
1173 1 0.059805 0.333681 0.396066
40 5 0.104177 0.350103 0.334998
813 1 0.0224895 0.468761 0.367296
403 5 0.151172 0.366034 0.375305
834 1 0.116485 0.470709 0.38289
418 1 0.028772 0.298585 0.343274
915 1 0.106995 0.424737 0.35158
904 5 0.019135 0.362033 0.366167
290 1 0.341184 0.18509 0.398352
1071 1 0.247411 0.360213 0.375384
456 1 0.477134 0.329527 0.350365
917 2 0.443923 0.489572 0.391922
935 2 0.436171 0.283559 0.343151
893 5 0.335426 0.270539 0.381294
460 1 0.381394 0.427415 0.344185
1053 1 0.299189 0.359377 0.345371
565 5 0.298414 0.444398 0.376093
346 2 0.252528 0.328312 0.357116
703 2 0.416333 0.472262 0.354165
241 1 0.443938 0.281359 0.382916
373 1 0.404711 0.462926 0.375961
1171 1 0.477097 0.447744 0.351196
409 1 0.473704 0.381295 0.380179
1159 2 0.423002 0.342095 0.383811
412 2 0.362099 0.366416 0.346617
628 1 0.390755 0.323145 0.333813
660 1 0.268727 0.26601 0.358041
397 2 0.0254409 0.214869 0.473841
885 5 0.185144 0.223495 0.471645
1185 5 0.121347 0.14874 0.484972
88 1 0.0264592 0.153481 0.479596
28 1 0.20434 0.110692 0.492663
62 5 0.239783 0.0348281 0.445392
953 5 0.0806974 0.0348216 0.426907
1060 5 0.13568 0.221988 0.439476
137 5 0.1697 0.124038 0.444971
377 2 0.0438328 0.172263 0.412344
537 1 0.200761 0.0776372 0.419562
15 5 0.0667785 0.0753763 0.467864
353 1 0.0552722 0.235057 0.410402
1024 1 0.0725127 0.147164 0.42952
1070 2 0.181809 0.0315398 0.40685
20 1 0.148129 0.028589 0.451794
1017 1 0.085525 0.226114 0.466805
382 5 0.208466 0.184313 0.400318
472 1 0.256419 0.0307763 0.477829
75 1 0.30382 0.108202 0.497518
375 2 0.257555 0.0933077 0.48203
206 1 0.256933 0.21897 0.492466
407 1 0.48817 0.213604 0.497064
247 5 0.399476 0.113199 0.473198
378 2 0.460183 0.0252687 0.448794
516 1 0.45541 0.0871312 0.443398
406 1 0.47025 0.176957 0.427662
91 1 0.404866 0.111135 0.412547
920 2 0.458185 0.115779 0.423967
211 5 0.316657 0.0104768 0.411877
858 1 0.260906 0.182612 0.435212
443 2 0.302169 0.144278 0.445978
14 1 0.318556 0.0867087 0.437485
968 1 0.267992 0.128059 0.464337
72 1 0.354988 0.177345 0.451593
922 5 0.355779 0.216666 0.481884
1194 5 0.311861 0.419958 0.561818
556 1 0.173862 0.483999 0.59797
86 1 0.410625 0.00781323 0.462188
779 5 0.146755 0.448388 0.473286
242 1 0.00779859 0.251024 0.490525
754 1 0.0284807 0.449368 0.472627
78 5 0.130829 0.30303 0.481234
663 1 0.114963 0.365148 0.460563
1079 5 0.244503 0.434196 0.416386
435 1 0.184465 0.300858 0.448898
871 3 0.00445148 0.425375 0.492933
392 1 0.00288889 0.41843 0.439992
827 1 0.0936788 0.316736 0.429118
689 2 0.138721 0.341971 0.442561
722 1 0.0968385 0.467101 0.445867
1128 2 0.0351998 0.46374 0.451569
249 2 0.0882433 0.290478 0.408621
265 1 0.167622 0.385335 0.429795
741 5 0.0735991 0.418218 0.413529
188 5 0.216983 0.340623 0.406128
364 1 0.0043445 0.355909 0.495221
1039 5 0.248828 0.384163 0.451887
322 5 0.355156 0.250282 0.422818
32 5 0.277225 0.274845 0.444425
557 2 0.496753 0.234378 0.424592
1105 1 0.330048 0.34947 0.53289
34 1 0.243165 0.426214 0.481487
998 1 0.398547 0.355034 0.402671
102 5 0.487135 0.350837 0.446935
1078 1 0.370569 0.40958 0.467984
564 2 0.370248 0.365154 0.483607
139 5 0.254854 0.323481 0.490471
547 1 0.313965 0.492282 0.497078
561 1 0.346509 0.311993 0.475405
256 2 0.258311 0.485801 0.486653
447 2 0.477283 0.407539 0.491062
4 1 0.433737 0.36043 0.489926
204 1 0.450083 0.462246 0.498662
608 1 0.468317 0.458292 0.409117
696 5 0.418452 0.266001 0.458477
996 1 0.457157 0.283948 0.426775
109 1 0.316164 0.348283 0.424738
694 1 0.310061 0.458701 0.444839
494 2 0.363551 0.387182 0.417237
308 1 0.396894 0.412465 0.433813
633 1 0.331819 0.432016 0.406825
410 2 0.371169 0.446596 0.450623
69 2 0.215491 0.208722 0.596921
640 1 0.046793 0.0115191 0.567996
550 1 0.128651 0.115964 0.517486
574 5 0.0389002 0.104452 0.507211
1155 1 0.147538 0.229005 0.503442
520 2 0.1906 0.115385 0.513276
811 1 0.219256 0.0643253 0.522698
643 1 0.223878 0.166034 0.521417
785 1 0.112009 0.0847868 0.580925
857 1 0.209259 0.0589048 0.580016
114 2 0.246959 0.0196392 0.591345
1089 1 0.0136947 0.0816666 0.591404
1006 1 0.0523587 0.134016 0.54287
738 3 0.0723187 0.225064 0.588636
647 2 0.170453 0.108021 0.575155
192 1 0.16263 0.118315 0.553862
632 1 0.0200223 0.184635 0.581256
897 2 0.0620394 0.0448283 0.585912
826 3 0.111894 0.101494 0.538948
680 1 0.104808 0.0340734 0.541762
548 1 0.188501 0.158332 0.586698
803 5 0.204356 0.208169 0.550338
219 1 0.110873 0.235197 0.569921
296 1 0.0589525 0.013923 0.5
861 1 0.491662 0.493695 0.593181
991 5 0.342575 0.115119 0.590584
10 1 0.253897 0.237297 0.582265
23 1 0.352537 0.0865148 0.527878
298 2 0.263993 0.209829 0.513424
101 1 0.322814 0.184993 0.519312
854 2 0.348416 0.128192 0.512016
470 2 0.456114 0.178227 0.511976
413 1 0.430849 0.219463 0.527117
684 1 0.485171 0.0181437 0.52495
833 1 0.405542 0.147788 0.503748
81 1 0.42069 0.0254886 0.589914
961 2 0.451338 0.0822705 0.586902
900 3 0.422984 0.227675 0.589571
945 5 0.471583 0.184182 0.552697
42 1 0.482237 0.195559 0.584297
1161 1 0.436861 0.104987 0.567403
1066 5 0.381374 0.148966 0.548754
596 1 0.289279 0.164947 0.560773
1199 2 0.306057 0.220881 0.570263
220 1 0.308536 0.0270529 0.58632
646 5 0.268231 0.0730668 0.550767
837 5 0.389445 0.0195535 0.549825
438 1 0.356108 0.209294 0.582724
395 5 0.350808 0.0036383 0.51431
930 2 0.497304 0.0199825 0.503374
685 2 0.0115062 0.492588 0.525447
1117 5 0.102831 0.366492 0.591946
518 1 0.0530667 0.286013 0.594555
1001 2 0.136671 0.278564 0.515978
92 1 0.0755364 0.299112 0.511559
916 1 0.0353063 0.444919 0.513077
605 1 0.176182 0.326442 0.511067
424 2 0.0142192 0.29909 0.505182
798 5 0.190555 0.417615 0.507177
317 3 0.224825 0.467511 0.583886
611 1 0.235724 0.337925 0.548606
215 1 0.204089 0.41249 0.571643
367 5 0.0779773 0.37732 0.532259
366 1 0.0458778 0.303415 0.551007
759 1 0.139576 0.335159 0.562987
231 2 0.1059 0.284093 0.555794
153 1 0.137007 0.267818 0.537141
127 1 0.15861 0.408163 0.540267
352 1 0.0647989 0.467911 0.593954
174 2 0.186892 0.373395 0.555647
439 5 0.109467 0.469475 0.561459
105 2 0.28526 0.305686 0.53943
533 1 0.148907 0.275832 0.402419
372 1 0.354937 0.342462 0.591819
706 1 0.431782 0.490147 0.561385
977 1 0.264714 0.267636 0.523505
535 1 0.273773 0.434261 0.526251
227 1 0.430364 0.286289 0.575483
340 1 0.384751 0.482668 0.592184
966 1 0.377303 0.439635 0.532268
784 2 0.430663 0.461233 0.541869
348 5 0.480601 0.33165 0.547008
303 1 0.480394 0.421258 0.539111
558 5 0.264686 0.342472 0.596419
100 2 0.330084 0.407062 0.522351
1013 1 0.341586 0.387853 0.501787
652 5 0.399416 0.289614 0.545563
1099 1 0.404044 0.380139 0.563077
344 1 0.456418 0.370434 0.594497
812 2 0.410959 0.347289 0.581441
1118 1 0.282545 0.440599 0.592472
943 5 0.4775 0.306112 0.512223
1057 1 0.30927 0.267915 0.555413
208 1 0.216455 0.499752 0.437205
1131 5 0.188397 0.036169 0.67418
142 1 0.176114 0.129267 0.671267
711 5 0.134331 0.027537 0.623894
700 1 0.147039 0.15517 0.637577
359 1 0.214884 0.073247 0.643624
1126 1 0.0861689 0.192534 0.609426
47 2 0.104796 0.200689 0.62965
94 1 0.0494429 0.201618 0.641113
230 2 0.19471 0.13295 0.650792
986 1 0.236707 0.034313 0.612345
1108 5 0.00846409 0.0261779 0.620888
956 1 0.345316 0.444679 0.621314
123 1 0.248098 0.168973 0.645384
610 1 0.256013 0.180238 0.611242
1094 2 0.265479 0.0514506 0.630887
1072 1 0.450169 0.168401 0.63676
753 1 0.479102 0.0672017 0.632874
209 1 0.422117 0.237743 0.612385
255 1 0.349986 0.197159 0.633417
365 1 0.302979 0.103039 0.627428
111 2 0.412983 0.21804 0.633122
651 2 0.293798 0.169075 0.628774
415 1 0.432448 0.120167 0.602857
1042 2 0.496986 0.129165 0.631188
1103 2 0.462129 0.00839167 0.640886
909 5 0.0976905 0.282157 0.660232
50 5 0.0955593 0.487511 0.660666
1085 2 0.115397 0.487709 0.606869
458 1 0.135544 0.257562 0.633382
51 1 0.161638 0.410804 0.652528
343 1 0.24195 0.295608 0.629508
1114 2 0.180884 0.294226 0.622794
1145 1 0.075902 0.364018 0.641028
870 1 0.158874 0.353944 0.621119
631 1 0.115924 0.449231 0.623968
1069 2 0.127226 0.395419 0.635107
639 5 0.227955 0.4802 0.648186
551 1 0.182832 0.25918 0.604401
136 5 0.00843232 0.310998 0.621277
202 5 0.451024 0.351929 0.659588
1150 1 0.445413 0.413788 0.626999
525 2 0.48376 0.382808 0.613554
607 2 0.328696 0.47357 0.602939
1183 5 0.278447 0.346136 0.657357
1000 1 0.371277 0.403644 0.651985
71 2 0.393174 0.441613 0.636578
999 1 0.4199 0.268101 0.646227
31 5 0.354499 0.317041 0.624115
1014 1 0.39869 0.00406213 0.644669
370 1 0.10027 0.527904 0.353544
388 1 0.234064 0.730263 0.392
1136 1 0.163324 0.740587 0.366054
1101 1 0.146317 0.568178 0.38251
763 1 0.0572804 0.740882 0.358566
708 1 0.103711 0.648779 0.363538
85 1 0.0403551 0.575941 0.378739
839 2 0.104621 0.712907 0.369564
572 2 0.153532 0.5129 0.393491
1144 3 0.0977845 0.582661 0.367075
1135 1 0.100988 0.715702 0.391233
429 5 0.203259 0.642488 0.386665
422 5 0.0114751 0.680946 0.34221
1186 1 0.491349 0.935296 0.363139
734 5 0.321913 0.699787 0.381476
1033 1 0.400259 0.643174 0.34418
1064 1 0.484297 0.59789 0.35892
918 1 0.406216 0.535523 0.351638
715 2 0.418077 0.598807 0.357241
579 1 0.392232 0.607638 0.377049
124 2 0.404106 0.601556 0.398104
9 1 0.490586 0.521063 0.380495
176 5 0.348308 0.716973 0.339387
985 5 0.309382 0.525064 0.398379
84 3 0.228522 0.761264 0.371582
1122 1 0.240124 0.937953 0.367529
1088 2 0.203438 0.88941 0.371762
286 1 0.224957 0.829697 0.37243
797 1 0.188459 0.90272 0.394055
89 1 0.149471 0.896019 0.360302
416 1 0.0497169 0.923396 0.35492
6 5 0.0650652 0.833827 0.361615
519 2 0.105635 0.945107 0.362299
747 1 0.104995 0.95397 0.383828
52 5 0.364175 0.82401 0.380909
758 1 0.448887 0.864829 0.383169
750 5 0.241404 0.812474 0.33816
500 5 0.494777 0.923856 0.326287
679 1 0.292929 0.899871 0.396745
404 1 0.278991 0.742577 0.358234
697 5 0.371688 0.919912 0.38082
926 5 0.49647 0.687349 0.380922
793 3 0.262698 0.997641 0.374535
919 1 0.407123 0.535513 0.399191
634 2 0.499033 0.903571 0.381976
1007 1 0.167301 0.602933 0.481858
12 5 0.0914982 0.735546 0.480273
1157 1 0.0930878 0.647248 0.463027
531 1 0.223362 0.731567 0.431258
620 2 0.203464 0.670093 0.430508
135 1 0.193968 0.646195 0.451058
1058 1 0.14804 0.673367 0.419078
670 1 0.138383 0.56317 0.448702
444 1 0.135432 0.515853 0.413413
994 5 0.0510077 0.597283 0.436198
446 1 0.0390729 0.668008 0.416123
1137 2 0.0938817 0.703606 0.412038
1169 2 0.14785 0.614158 0.461589
1112 3 0.197492 0.575684 0.500206
739 5 0.0446016 0.562014 0.410737
45 1 0.208422 0.50819 0.497467
445 3 0.146131 0.503949 0.436496
718 1 0.252392 0.6358 0.421648
1083 1 0.328324 0.64709 0.478151
213 5 0.353908 0.551447 0.478514
1002 1 0.259327 0.520533 0.467696
1018 2 0.29901 0.649941 0.49747
349 1 0.263436 0.704435 0.499596
749 1 0.398202 0.712638 0.468238
554 5 0.453586 0.666805 0.493557
238 1 0.478197 0.552457 0.434147
501 5 0.468589 0.653889 0.434918
499 1 0.414406 0.729139 0.42716
528 1 0.413179 0.611268 0.458936
1049 3 0.448212 0.551711 0.455177
1031 1 0.333317 0.658925 0.442943
789 1 0.305204 0.561178 0.437899
562 1 0.319202 0.744025 0.410241
847 1 0.354289 0.619106 0.41063
911 2 0.312017 0.617357 0.427107
740 2 0.274015 0.512595 0.44673
1038 2 0.369289 0.65918 0.46155
598 1 0.461395 0.625211 0.402123
387 1 0.428592 0.572415 0.498539
1111 1 0.0866049 0.99809 0.598446
844 2 0.239712 0.757132 0.489893
11 1 0.175445 0.75588 0.490339
637 1 0.150162 0.979507 0.414473
426 1 0.0693126 0.85607 0.470059
1087 1 0.130338 0.968994 0.480474
167 5 0.145451 0.872696 0.485717
374 1 0.244169 0.899368 0.487101
705 2 0.235974 0.9102 0.447534
603 1 0.239667 0.922379 0.426147
475 5 0.0208197 0.901296 0.432237
823 5 0.171159 0.777505 0.453147
180 5 0.110699 0.85814 0.442757
35 1 0.0873578 0.752943 0.425669
594 1 0.174491 0.925613 0.452555
988 2 0.13213 0.970701 0.458914
173 1 0.00374644 0.521264 0.449312
892 1 0.0713041 0.957622 0.451843
997 5 0.0325633 0.784581 0.448132
334 1 0.0997487 0.882766 0.41324
70 2 0.0139602 0.876269 0.478169
183 2 0.240609 0.89016 0.407272
386 1 0.232383 0.827177 0.411129
170 1 0.0223114 0.978499 0.410408
815 2 0.131265 0.929142 0.403243
877 1 0.442403 0.991886 0.494923
1197 2 0.45321 0.747934 0.469486
1156 3 0.252675 0.761527 0.412795
941 1 0.345441 0.962061 0.485655
764 1 0.340267 0.831912 0.471409
881 1 0.262179 0.763027 0.470007
1015 3 0.27766 0.961349 0.482672
294 1 0.427382 0.910541 0.472806
293 1 0.462772 0.763361 0.490218
1062 5 0.496915 0.787399 0.402912
874 2 0.405613 0.967842 0.478952
140 1 0.382435 0.82222 0.41485
699 1 0.397748 0.929863 0.410944
958 3 0.399504 0.85767 0.461414
325 1 0.443708 0.804294 0.458786
277 1 0.468341 0.867896 0.427275
898 3 0.447993 0.976162 0.407903
356 2 0.406539 0.876508 0.422945
1034 1 0.37745 0.889551 0.441805
226 1 0.277502 0.948379 0.457708
138 1 0.333614 0.778448 0.442561
513 2 0.297983 0.806651 0.458229
980 5 0.346924 0.98994 0.440055
144 2 0.36343 0.765064 0.423887
942 1 0.25547 0.84944 0.450082
1189 5 0.155268 0.7023 0.517134
549 1 0.0683398 0.667205 0.526191
1147 5 0.0787662 0.587527 0.504379
665 2 0.0187833 0.706779 0.527886
657 1 0.165067 0.585494 0.519584
655 5 0.240283 0.658621 0.534892
120 1 0.240334 0.616904 0.564188
910 5 0.108212 0.601416 0.543572
182 1 0.155695 0.553161 0.568025
39 1 0.0579445 0.512578 0.538665
616 1 0.0472915 0.637239 0.568839
506 1 0.149155 0.64797 0.580849
1142 5 0.0554871 0.542046 0.570899
820 2 0.0862783 0.667727 0.582647
751 1 0.169622 0.732373 0.550739
145 1 0.0858169 0.729602 0.575259
1061 2 0.191659 0.599845 0.577199
544 1 0.22315 0.589427 0.595502
7 1 0.0156224 0.742932 0.509311
886 5 0.263372 0.727112 0.561184
342 5 0.153919 0.505491 0.535318
853 5 0.0201179 0.804653 0.410516
952 2 0.436789 0.5088 0.582254
618 5 0.25158 0.526796 0.525327
307 2 0.375582 0.696081 0.526488
678 1 0.347193 0.657824 0.512233
568 5 0.352743 0.557842 0.515099
168 1 0.262914 0.600004 0.503371
978 2 0.461043 0.522852 0.506638
581 1 0.425807 0.672194 0.536704
902 1 0.409658 0.676664 0.57184
181 1 0.432285 0.573871 0.581703
1170 2 0.442788 0.700211 0.55602
541 5 0.407888 0.584561 0.55195
281 1 0.317293 0.568593 0.545639
79 1 0.327454 0.714507 0.53888
1 1 0.33146 0.592971 0.578958
143 1 0.259642 0.516597 0.570874
1028 3 0.389863 0.62654 0.586265
534 2 0.287725 0.573184 0.564786
268 1 0.444485 0.512165 0.527736
462 5 0.498394 0.609342 0.530574
474 1 0.162781 0.988213 0.511796
862 1 0.0129225 0.984834 0.534795
398 5 0.00585679 0.670543 0.452628
490 5 0.116747 0.830824 0.522854
1050 1 0.0845016 0.915527 0.508263
851 1 0.401071 0.501855 0.454697
576 2 0.107851 0.971999 0.501276
246 1 0.214689 0.879234 0.522431
702 1 0.0142058 0.751865 0.543918
1116 1 0.23432 0.955759 0.589272
1141 1 0.231601 0.982045 0.542893
262 1 0.169431 0.774388 0.584771
727 3 0.0761594 0.871989 0.564419
860 2 0.0632253 0.98913 0.548245
451 5 0.160449 0.987728 0.565363
405 1 0.0899216 0.898546 0.585204
765 1 0.114949 0.817235 0.559452
399 5 0.18557 0.893463 0.553955
376 1 0.088543 0.930541 0.551317
482 1 0.0115433 0.848725 0.561286
567 2 0.13635 0.761986 0.566729
221 2 0.295075 0.820126 0.581245
310 5 0.282619 0.904728 0.545978
434 1 0.255105 0.809921 0.501348
234 3 0.364115 0.986099 0.591821
592 1 0.371615 0.843618 0.539286
283 1 0.398464 0.749229 0.516384
1023 1 0.289695 0.869622 0.595597
841 5 0.266726 0.799676 0.53494
816 1 0.256217 0.835073 0.564655
1115 1 0.283739 0.763284 0.590433
1113 1 0.492389 0.799164 0.523011
1011 2 0.258047 0.872814 0.506396
1184 1 0.317842 0.884584 0.514133
495 1 0.401275 0.939419 0.528909
1093 2 0.378484 0.882484 0.521801
41 1 0.264124 0.975588 0.509078
511 1 0.416056 0.850104 0.507906
83 2 0.442732 0.791296 0.508543
368 2 0.398107 0.817754 0.557168
414 1 0.462677 0.964395 0.557809
719 3 0.46799 0.958878 0.53499
1095 1 0.456679 0.78767 0.595068
315 1 0.426413 0.76171 0.554059
484 1 0.440866 0.864056 0.562461
450 2 0.438188 0.921875 0.571626
360 1 0.461534 0.920834 0.591769
731 1 0.354652 0.813801 0.572992
905 1 0.375327 0.937994 0.574934
361 5 0.0149679 0.596407 0.540205
545 2 0.219892 0.998591 0.522436
305 1 0.497401 0.709356 0.460528
479 1 0.455904 0.995959 0.429661
913 5 0.106091 0.667752 0.677692
68 1 0.219947 0.564419 0.62943
852 2 0.241151 0.700546 0.661791
329 1 0.222083 0.652951 0.648391
950 2 0.185388 0.60395 0.642469
1166 1 0.206156 0.695751 0.679839
627 1 0.0394776 0.594122 0.668745
819 1 0.0719807 0.647511 0.603
609 2 0.0843588 0.607242 0.619732
704 1 0.167811 0.566791 0.65924
891 1 0.105596 0.551278 0.611056
455 1 0.13506 0.626214 0.632151
955 1 0.0334685 0.603392 0.632674
393 5 0.115194 0.552951 0.684117
906 2 0.00785069 0.577819 0.65088
1104 1 0.0147156 0.513977 0.648398
459 1 0.0280328 0.716283 0.67099
440 5 0.232474 0.695479 0.600813
521 1 0.188146 0.861383 0.601523
483 1 0.46609 0.555274 0.620677
1008 1 0.416088 0.738063 0.655653
1191 1 0.483373 0.74761 0.625488
1074 2 0.434493 0.558435 0.639487
106 1 0.482452 0.581129 0.651862
119 1 0.385924 0.653257 0.607189
125 1 0.304665 0.703485 0.666236
1125 2 0.260674 0.578493 0.612791
186 2 0.349968 0.735162 0.65452
923 1 0.295773 0.62911 0.619006
733 1 0.303838 0.530653 0.609419
927 1 0.346348 0.706175 0.635276
363 1 0.383606 0.603521 0.63841
129 2 0.35339 0.647433 0.62594
1180 5 0.374507 0.748985 0.600658
710 1 0.22544 0.756792 0.651799
1020 1 0.0477407 0.743039 0.636099
937 3 0.234722 0.942038 0.644781
442 2 0.237531 0.901517 0.602235
1167 2 0.216444 0.797473 0.635348
588 1 0.193255 0.769052 0.617534
653 1 0.239333 0.923615 0.622201
80 1 0.168439 0.840889 0.639741
712 1 0.0968637 0.799316 0.608284
1067 2 0.159519 0.80422 0.603131
502 2 0.0148904 0.864083 0.64819
802 2 0.0431718 0.784065 0.618603
244 3 0.12615 0.901746 0.64021
324 1 0.167806 0.953047 0.646678
1124 2 0.0705035 0.93332 0.601337
1003 1 0.0719483 0.885848 0.653463
60 1 0.100501 0.917042 0.619607
345 1 0.0196283 0.841048 0.626543
104 5 0.155699 0.813192 0.672981
1046 1 0.00701221 0.937539 0.601976
1065 2 0.00640116 0.745656 0.654179
437 5 0.278832 0.699122 0.698869
908 1 0.348609 0.907695 0.641361
425 1 0.00358471 0.809167 0.658321
132 1 0.336193 0.796994 0.658224
867 5 0.396433 0.859316 0.605074
931 1 0.29216 0.999962 0.640981
1123 1 0.350717 0.971436 0.61375
205 5 0.321824 0.869717 0.677047
177 3 0.340527 0.83851 0.639471
217 1 0.276566 0.81729 0.630414
960 1 0.2558 0.911862 0.662876
1110 2 0.350086 0.969685 0.635148
236 1 0.00283047 0.754033 0.60537
1106 1 0.401062 0.811145 0.631945
338 1 0.491541 0.813956 0.652886
838 1 0.469473 0.964876 0.624007
491 2 0.449727 0.776682 0.641507
54 1 0.410971 0.500513 0.644083
17 2 0.499782 0.751924 0.604866
285 1 0.70988 0.140268 0.390332
725 1 0.638318 0.0577802 0.368696
464 1 0.695504 0.128669 0.346987
1178 2 0.715817 0.195889 0.379495
1092 2 0.690245 0.0681754 0.355873
810 1 0.744698 0.0584642 0.367528
1016 5 0.585145 0.145398 0.371382
321 1 0.53651 0.0309998 0.37293
934 1 0.518206 0.220988 0.367244
1148 2 0.595504 0.0235956 0.380857
517 5 0.718455 0.0111288 0.39682
328 2 0.531004 0.217363 0.345835
688 1 0.695464 0.236684 0.337959
845 1 0.526605 0.00442473 0.337447
984 1 0.659183 0.212198 0.369211
121 5 0.57342 0.0795345 0.326864
267 1 0.591274 0.239076 0.342915
903 1 0.690798 0.0212385 0.341247
385 5 0.76319 0.0215819 0.315828
757 1 0.53139 0.154139 0.342133
585 3 0.742523 0.180575 0.342795
16 2 0.648688 0.250823 0.351317
822 5 0.61057 0.241099 0.397654
1096 1 0.733235 0.247602 0.39187
686 2 0.976081 0.477412 0.382809
1026 1 0.75857 0.196489 0.363888
1073 2 0.807055 0.0659971 0.374462
818 2 0.84442 0.112756 0.337589
330 1 0.900788 0.147436 0.333778
540 5 0.88355 0.159409 0.382979
957 1 0.940982 0.0353899 0.397741
288 2 0.92801 0.203663 0.338413
1068 1 0.795212 0.153339 0.331536
990 1 0.837453 0.0991878 0.358645
107 1 0.844534 0.0597345 0.326085
389 1 0.960073 0.238378 0.323466
1163 1 0.817924 0.0905785 0.394402
159 2 0.997093 0.00735478 0.392356
261 1 0.887553 0.243648 0.348071
835 1 0.973882 0.00428314 0.343708
921 5 0.931287 0.030411 0.316968
614 1 0.983071 0.198863 0.350032
1032 1 0.832431 0.00631498 0.373863
799 2 0.753247 0.308258 0.396807
807 5 0.573598 0.415825 0.328327
690 3 0.503287 0.389692 0.359892
555 1 0.750828 0.395239 0.347584
497 5 0.702799 0.413731 0.318942
428 1 0.640861 0.484894 0.33119
940 1 0.590304 0.326059 0.387935
729 1 0.649349 0.312434 0.360276
396 1 0.743247 0.458989 0.380361
254 2 0.679362 0.4646 0.380077
77 1 0.649019 0.410291 0.377557
774 1 0.569723 0.382297 0.356939
1192 2 0.615083 0.358172 0.370728
676 1 0.746002 0.348926 0.380812
341 1 0.937986 0.42329 0.381515
1045 1 0.812305 0.310982 0.35804
477 5 0.972312 0.387001 0.330766
732 2 0.805903 0.449891 0.384241
692 2 0.777898 0.362752 0.362808
745 3 0.898511 0.405503 0.363664
1010 1 0.880634 0.26825 0.38124
436 1 0.908402 0.442548 0.345905
299 1 0.916241 0.340088 0.357457
1200 1 0.830061 0.402533 0.371477
947 2 0.875125 0.293253 0.36117
649 1 0.660452 0.488721 0.399807
1019 5 0.529174 0.114352 0.465502
1030 2 0.534695 0.245663 0.486144
146 1 0.57301 0.194609 0.47942
691 1 0.634267 0.116998 0.491601
613 2 0.632711 0.172639 0.480155
179 1 0.678881 0.209423 0.489347
469 5 0.736348 0.0383884 0.474637
783 1 0.668274 0.0547215 0.456134
2 1 0.608075 0.101214 0.432657
454 1 0.648826 0.15803 0.459814
401 5 0.745796 0.190929 0.454535
128 5 0.590719 0.0275522 0.472322
489 1 0.711416 0.118788 0.434348
864 2 0.658565 0.108756 0.445678
795 5 0.672769 0.182202 0.415524
3 2 0.578856 0.0986901 0.413915
30 1 0.513486 0.0898223 0.415887
115 1 0.516736 0.240996 0.403625
770 1 0.512172 0.0128934 0.459536
1133 1 0.547091 0.241947 0.437866
687 1 0.502463 0.0754954 0.493621
840 1 0.598185 0.0485347 0.401313
478 1 0.801476 0.116643 0.472754
682 5 0.943947 0.113042 0.492446
253 5 0.882661 0.0521958 0.466869
622 2 0.848801 0.158218 0.476474
493 5 0.898325 0.116306 0.410311
116 1 0.863793 0.15921 0.497312
199 5 0.855949 0.0132582 0.409423
683 1 0.984966 0.232204 0.457741
782 1 0.827349 0.218064 0.471755
582 5 0.919658 0.207621 0.435794
1179 5 0.97609 0.116513 0.448264
522 5 0.779538 0.152296 0.412729
214 1 0.86082 0.213487 0.410358
829 1 0.894964 0.145514 0.462408
95 5 0.795394 0.0836662 0.440874
394 1 0.977374 0.0415149 0.475073
746 1 0.980817 0.164555 0.412556
1077 3 0.508655 0.495708 0.423841
218 5 0.596736 0.369679 0.469366
1052 5 0.688487 0.305949 0.485359
1168 5 0.701 0.450294 0.488402
546 2 0.597565 0.280161 0.44406
721 5 0.626788 0.391294 0.415998
593 3 0.65821 0.484426 0.454878
433 1 0.725187 0.322069 0.447268
312 1 0.650609 0.263362 0.431322
1004 2 0.74347 0.380873 0.452997
44 2 0.711196 0.285419 0.430912
57 1 0.619544 0.281192 0.463898
37 1 0.715729 0.32466 0.413607
669 1 0.69496 0.422222 0.455162
767 1 0.597388 0.477567 0.465923
586 1 0.57985 0.339884 0.437763
536 1 0.528189 0.459854 0.441194
863 2 0.532855 0.470701 0.461701
976 5 0.516207 0.360518 0.408916
466 1 0.508053 0.287424 0.473142
693 5 0.766156 0.246766 0.493982
672 1 0.753521 0.238781 0.428601
591 5 0.975188 0.396258 0.409862
1091 1 0.774142 0.376034 0.471797
761 3 0.839659 0.379283 0.481408
476 5 0.913608 0.264962 0.479273
357 2 0.887161 0.483946 0.497246
263 1 0.8777 0.351344 0.464921
1138 1 0.940485 0.445534 0.497087
735 1 0.843877 0.44432 0.488272
636 1 0.863304 0.468108 0.433601
674 1 0.809913 0.438848 0.405164
64 2 0.804456 0.45062 0.426155
131 1 0.921379 0.29899 0.41167
1021 5 0.83182 0.275852 0.444834
1190 5 0.911306 0.376849 0.433768
1035 5 0.915978 0.445322 0.458377
103 1 0.782936 0.399146 0.437396
257 3 0.99375 0.00111614 0.492431
604 5 0.996585 0.288694 0.433078
880 1 0.501155 0.423962 0.471933
1054 5 0.994281 0.340224 0.46366
1059 1 0.999133 0.483606 0.402947
297 1 0.816934 0.31163 0.404006
467 2 0.87019 0.27156 0.402012
713 1 0.648265 0.0173498 0.500213
487 5 0.505489 0.058932 0.552766
1044 1 0.583892 0.00914512 0.569485
250 2 0.534182 0.189459 0.597071
1121 2 0.563729 0.138789 0.528603
164 1 0.591357 0.0842917 0.520866
58 1 0.691162 0.0991266 0.520562
901 2 0.644622 0.0772982 0.507904
304 1 0.594014 0.193981 0.522045
1041 1 0.564926 0.137664 0.55037
936 1 0.727243 0.0454112 0.58272
1139 1 0.653853 0.110599 0.56591
53 1 0.701279 0.136216 0.596277
626 2 0.609757 0.15824 0.564632
210 5 0.741501 0.056174 0.542505
339 2 0.709453 0.103673 0.577264
43 5 0.704002 0.210284 0.525151
369 1 0.640801 0.212164 0.558576
971 1 0.684199 0.235377 0.587977
830 1 0.58385 0.172326 0.5846
350 2 0.564183 0.0302737 0.589086
1195 1 0.515431 0.0716738 0.586654
786 2 0.995686 0.466172 0.596641
736 5 0.815938 0.0394739 0.595158
200 2 0.989681 0.148297 0.54507
1154 5 0.771799 0.113993 0.503694
515 5 0.874627 0.095821 0.527542
408 1 0.961742 0.131009 0.526162
384 5 0.895191 0.201325 0.522549
224 1 0.803128 0.0362842 0.51861
1198 1 0.825864 0.189778 0.551143
157 1 0.912394 0.0351625 0.583302
1005 1 0.853265 0.0907867 0.56127
332 1 0.966867 0.12025 0.5626
1187 2 0.887894 0.0345547 0.563536
809 2 0.982611 0.132527 0.583777
118 2 0.818379 0.143042 0.565908
147 1 0.921708 0.0209541 0.545805
570 1 0.930988 0.155541 0.594825
273 1 0.820422 0.170102 0.58568
228 1 0.755366 0.128275 0.5649
794 1 0.946216 0.00907093 0.509576
677 1 0.976829 0.211852 0.546886
801 1 0.562481 0.487095 0.547403
73 2 0.591007 0.262106 0.522571
152 1 0.629565 0.359119 0.593526
895 1 0.532891 0.393408 0.501688
427 2 0.59068 0.408319 0.51048
509 1 0.580472 0.393261 0.530613
878 1 0.568818 0.275958 0.502638
924 1 0.600961 0.472078 0.508554
235 1 0.647714 0.293984 0.524046
279 1 0.644278 0.381073 0.502788
948 3 0.686437 0.352035 0.518955
431 2 0.683705 0.462967 0.582697
379 2 0.720809 0.46722 0.532195
720 1 0.735828 0.249189 0.555748
890 1 0.72313 0.419849 0.592186
831 2 0.625386 0.367704 0.572201
98 1 0.72449 0.325726 0.577701
203 2 0.681925 0.262616 0.567297
716 1 0.702787 0.405954 0.532227
391 1 0.655798 0.425382 0.567664
351 1 0.639253 0.310523 0.563889
1119 3 0.543403 0.420864 0.5473
1056 1 0.542635 0.271484 0.536852
850 1 0.563465 0.383561 0.566186
1081 5 0.528525 0.283137 0.568647
612 1 0.74777 0.343521 0.510361
899 1 0.734547 0.491095 0.513224
530 3 0.937384 0.479516 0.557612
737 2 0.760124 0.372704 0.585164
430 5 0.783729 0.262699 0.58702
266 1 0.968335 0.46436 0.53865
189 1 0.774345 0.471863 0.543941
529 1 0.826247 0.387225 0.533441
869 3 0.984085 0.279903 0.544301
884 1 0.810982 0.285669 0.529876
843 5 0.930593 0.38602 0.524601
488 1 0.973568 0.291808 0.52133
825 2 0.808217 0.340869 0.518728
133 1 0.849821 0.346635 0.502337
18 1 0.790185 0.399638 0.567534
982 3 0.8044 0.255211 0.54999
1102 1 0.871759 0.457116 0.556752
769 1 0.843283 0.28873 0.566188
291 1 0.895852 0.360239 0.585382
1158 1 0.926717 0.261552 0.58814
623 1 0.976521 0.458616 0.576226
1100 2 0.817616 0.428563 0.550572
946 1 0.937681 0.310864 0.557373
742 2 0.901459 0.305278 0.574249
56 1 0.803928 0.35836 0.599174
944 1 0.64261 0.491808 0.597467
1175 1 0.585633 0.154396 0.403381
130 5 0.995197 0.355556 0.58075
190 1 0.760505 0.496425 0.4302
1109 1 0.501075 0.14517 0.523093
300 2 0.576545 0.190307 0.647959
1043 1 0.636403 0.191957 0.654367
788 1 0.735286 0.163168 0.64297
354 2 0.699192 0.196154 0.604547
441 2 0.630226 0.0226922 0.620619
748 1 0.66144 0.204441 0.621714
875 1 0.614049 0.0493173 0.601196
1152 1 0.65979 0.0659371 0.632289
122 5 0.719897 0.0967856 0.66387
656 2 0.688788 0.205804 0.641837
539 1 0.542356 0.138534 0.647604
1025 1 0.530981 0.150784 0.613749
240 1 0.550194 0.250616 0.604258
601 1 0.550086 0.240416 0.63842
448 5 0.754345 0.0661728 0.62659
615 1 0.94011 0.00828441 0.641284
932 1 0.817796 0.0496 0.655393
194 5 0.936069 0.0913056 0.656068
33 5 0.834279 0.147043 0.649157
383 1 0.942063 0.186589 0.652232
93 1 0.968219 0.218875 0.61986
666 1 0.866732 0.217938 0.611763
975 5 0.914244 0.0658812 0.616258
335 1 0.824696 0.119506 0.616325
292 2 0.818126 0.177416 0.607912
1151 1 0.760719 0.207915 0.610957
1140 2 0.988088 0.18455 0.637066
507 2 0.925143 0.214196 0.603093
162 1 0.996492 0.122481 0.630925
498 1 0.975246 0.415794 0.607833
355 1 0.714336 0.380687 0.645773
223 1 0.642604 0.413128 0.624745
933 2 0.646581 0.356605 0.613966
642 2 0.702582 0.436702 0.635564
527 1 0.705813 0.33173 0.618791
457 2 0.735319 0.32146 0.638374
771 1 0.71049 0.264304 0.645302
1130 2 0.576494 0.432915 0.629513
641 1 0.555265 0.41081 0.647773
463 2 0.550841 0.284059 0.622881
1009 1 0.606577 0.317426 0.624787
193 1 0.541668 0.409042 0.613109
471 1 0.681853 0.48494 0.647863
675 1 0.755489 0.450952 0.624595
600 1 0.56294 0.493988 0.627168
337 5 0.99396 0.414025 0.639624
1182 5 0.912559 0.260344 0.670472
1080 2 0.866554 0.379259 0.602935
972 1 0.854239 0.441811 0.610211
1040 1 0.894215 0.338313 0.655837
963 1 0.836197 0.419421 0.642161
569 1 0.799894 0.323477 0.638714
65 1 0.884868 0.349519 0.620902
1132 2 0.817986 0.462471 0.627599