ITEM: TIMESTEP
1400
ITEM: NUMBER OF ATOMS
1200
ITEM: BOX BOUNDS pp pp pp
-7.6266250050336382e-02 2.5098596345622489e+01
-7.6266250050336382e-02 2.5098596345622489e+01
-2.5251128845723162e+01 5.0273458941295317e+01
ITEM: ATOMS id type xs ys zs
760 1 0.0667236 0.145391 0.397678
419 1 0.226404 0.181336 0.363706
108 1 0.220843 0.0643831 0.361802
96 1 0.0387797 0.0593405 0.38195
635 5 0.228927 0.202968 0.331201
1076 1 0.191075 0.115459 0.334442
1193 1 0.112597 0.110221 0.36371
580 5 0.140587 0.210823 0.352561
269 2 0.0259648 0.232328 0.332066
638 5 0.109183 0.125336 0.312448
390 2 0.0914668 0.0969813 0.384252
645 3 0.159211 0.0695981 0.350251
967 1 0.0774798 0.204815 0.324994
542 1 0.140794 0.073943 0.395419
804 1 0.235216 0.0207483 0.394199
1149 3 0.239856 0.124864 0.351141
787 1 0.411108 0.232808 0.35748
314 1 0.448964 0.187828 0.391948
590 2 0.487785 0.23893 0.387464
559 1 0.428322 0.0508303 0.357353
973 5 0.414075 0.140152 0.345354
468 2 0.39583 0.155267 0.396851
1174 1 0.30337 0.124864 0.343594
1037 1 0.378461 0.112208 0.381552
432 5 0.325126 0.193591 0.366377
196 2 0.387269 0.0504981 0.374448
762 1 0.13532 0.00576256 0.352331
465 1 0.331108 0.0189703 0.371342
907 1 0.420099 0.0212042 0.390534
624 3 0.494806 0.0260074 0.354947
309 5 0.253903 0.159511 0.397957
26 5 0.246646 0.453629 0.340694
577 2 0.0942492 0.477431 0.366673
82 1 0.187155 0.306196 0.355552
1173 1 0.0496623 0.317324 0.393338
40 5 0.119784 0.34539 0.332879
813 1 0.0349139 0.464851 0.372159
403 5 0.142878 0.357733 0.379696
1071 1 0.245993 0.350192 0.381469
834 1 0.127195 0.4768 0.386186
418 1 0.0316904 0.292651 0.337673
915 1 0.118182 0.426873 0.354808
904 5 0.0281556 0.36628 0.364532
456 1 0.470534 0.328726 0.352649
917 2 0.44943 0.482931 0.390672
935 2 0.434585 0.279428 0.344687
893 5 0.310311 0.285225 0.39492
460 1 0.341656 0.458264 0.347561
1053 1 0.278512 0.363853 0.349464
565 5 0.289311 0.444053 0.374507
346 2 0.244545 0.322598 0.362656
703 2 0.400347 0.475558 0.355291
241 1 0.449632 0.289884 0.386773
373 1 0.398814 0.468029 0.377024
1171 1 0.451555 0.440586 0.349294
409 1 0.469557 0.390961 0.3803
1159 2 0.422781 0.347839 0.384794
412 2 0.336929 0.331787 0.353176
628 1 0.377659 0.30844 0.338419
660 1 0.298109 0.281906 0.361811
151 1 0.374507 0.35175 0.369565
690 3 0.491904 0.390499 0.357938
793 3 0.260209 0.0184088 0.372578
929 1 0.48285 0.247903 0.334984
1146 5 0.0189696 0.226479 0.37873
397 2 0.0221204 0.223825 0.473589
885 5 0.175621 0.193649 0.477965
1185 5 0.101849 0.104096 0.488618
88 1 0.026605 0.159825 0.476835
28 1 0.207657 0.114033 0.493772
62 5 0.236726 0.0383456 0.447175
953 5 0.0801379 0.0391759 0.433103
1060 5 0.121905 0.217314 0.440991
137 5 0.163422 0.12267 0.446837
377 2 0.0444612 0.167893 0.416092
537 1 0.2109 0.0833727 0.420668
15 5 0.0542594 0.0846519 0.461311
353 1 0.0597419 0.232176 0.414934
1024 1 0.0789531 0.138646 0.43191
1070 2 0.187545 0.0443303 0.406321
20 1 0.139083 0.0358961 0.45977
786 2 0.0030544 0.463026 0.594888
170 1 0.020979 0.00612911 0.411429
472 1 0.241806 0.0206148 0.480509
75 1 0.309765 0.0883317 0.497101
375 2 0.256603 0.0814055 0.484142
206 1 0.258881 0.227782 0.490687
407 1 0.479909 0.208815 0.497918
247 5 0.422407 0.10008 0.476739
378 2 0.471486 0.0229113 0.446647
516 1 0.466495 0.088586 0.445268
406 1 0.470408 0.186346 0.43204
91 1 0.413268 0.120693 0.414839
920 2 0.46572 0.122356 0.427127
211 5 0.326995 0.0504671 0.412407
858 1 0.290099 0.181396 0.440389
443 2 0.317185 0.13354 0.451477
14 1 0.328401 0.0796737 0.440657
322 5 0.353399 0.244756 0.429734
968 1 0.269339 0.112892 0.465594
72 1 0.364547 0.160648 0.463157
32 5 0.297781 0.256374 0.460935
922 5 0.361009 0.216894 0.489081
706 1 0.434077 0.487974 0.563167
545 2 0.220898 0.00929778 0.523856
372 1 0.357801 0.324045 0.591807
977 1 0.28002 0.271673 0.523023
290 1 0.351295 0.199858 0.400932
1017 1 0.0807299 0.245424 0.467684
535 1 0.27855 0.428364 0.53075
69 2 0.215148 0.205802 0.596663
779 5 0.136723 0.438284 0.475467
227 1 0.444034 0.283396 0.579064
242 1 0.0089228 0.25371 0.492177
754 1 0.0298291 0.46203 0.471643
78 5 0.145026 0.309827 0.477301
34 1 0.246355 0.4181 0.479777
663 1 0.103932 0.369762 0.458344
1079 5 0.23334 0.434992 0.411332
435 1 0.174059 0.302302 0.443345
392 1 0.00145344 0.421028 0.438874
208 1 0.217191 0.486011 0.440415
827 1 0.0800722 0.324277 0.428642
689 2 0.128599 0.347232 0.440013
722 1 0.0911689 0.475326 0.442173
1128 2 0.0296739 0.470441 0.449869
249 2 0.0838323 0.292798 0.409499
265 1 0.154509 0.391287 0.426948
741 5 0.0705739 0.43982 0.413973
188 5 0.223961 0.341164 0.412942
382 5 0.227742 0.238523 0.422466
533 1 0.145419 0.28849 0.403833
998 1 0.396547 0.358068 0.404412
102 5 0.485054 0.350269 0.452246
1078 1 0.380922 0.407536 0.47265
564 2 0.37981 0.362403 0.488904
139 5 0.268617 0.330787 0.492201
547 1 0.318406 0.479676 0.495389
561 1 0.357983 0.308527 0.48038
256 2 0.261927 0.477711 0.485565
447 2 0.486311 0.408573 0.493296
4 1 0.443408 0.361195 0.493915
204 1 0.46162 0.463206 0.500589
608 1 0.465025 0.458733 0.409129
696 5 0.427222 0.251302 0.459052
996 1 0.458761 0.288873 0.430334
1039 5 0.251244 0.378798 0.447627
109 1 0.311954 0.339821 0.42459
694 1 0.317204 0.458985 0.448319
494 2 0.357744 0.383196 0.41976
308 1 0.391852 0.395661 0.438053
633 1 0.330872 0.434208 0.410958
410 2 0.376616 0.437578 0.453515
340 1 0.37616 0.472769 0.592143
966 1 0.379029 0.446012 0.535768
784 2 0.435247 0.468388 0.542674
558 5 0.255682 0.335038 0.5905
550 1 0.134696 0.110788 0.51963
574 5 0.0431964 0.143661 0.508721
1155 1 0.117229 0.214702 0.504205
520 2 0.194592 0.1238 0.51508
811 1 0.229308 0.0753217 0.524161
643 1 0.213395 0.18378 0.519937
785 1 0.106782 0.0810748 0.581532
857 1 0.201822 0.0532063 0.581837
303 1 0.483744 0.426654 0.538939
114 2 0.239614 0.00862369 0.591381
1089 1 0.00738207 0.075893 0.591185
1006 1 0.055393 0.129616 0.545347
738 3 0.077198 0.213984 0.591381
647 2 0.165084 0.104824 0.576641
192 1 0.165341 0.116692 0.555578
632 1 0.0199528 0.176515 0.58793
897 2 0.0561564 0.0394048 0.584867
826 3 0.114735 0.0991528 0.541048
680 1 0.105271 0.0316507 0.543872
548 1 0.182411 0.158368 0.587835
803 5 0.194888 0.204375 0.552458
219 1 0.104089 0.225501 0.570241
10 1 0.261854 0.226811 0.583014
991 5 0.339127 0.102131 0.587922
100 2 0.336726 0.40463 0.526888
479 1 0.465396 0.00710396 0.425875
296 1 0.0688725 0.0207244 0.498887
23 1 0.346283 0.0842866 0.530777
298 2 0.262545 0.218875 0.511824
101 1 0.312782 0.175817 0.514227
854 2 0.341965 0.118095 0.512604
470 2 0.455227 0.170882 0.513745
413 1 0.432258 0.212689 0.528684
684 1 0.482201 0.0129135 0.523767
833 1 0.403383 0.136807 0.507606
81 1 0.415959 0.0157755 0.592794
961 2 0.446469 0.0732526 0.589648
900 3 0.426716 0.228716 0.590842
945 5 0.469813 0.175951 0.556307
42 1 0.48009 0.1859 0.587919
1161 1 0.425414 0.092737 0.570327
1066 5 0.387339 0.155186 0.549719
596 1 0.298796 0.152116 0.563537
1199 2 0.313043 0.210377 0.57108
220 1 0.302197 0.00933772 0.586081
646 5 0.273331 0.0656418 0.553233
837 5 0.370146 0.0122985 0.551554
438 1 0.368775 0.205627 0.581486
1117 5 0.109714 0.352389 0.592869
518 1 0.0560885 0.280246 0.597222
1001 2 0.13048 0.266681 0.515627
92 1 0.0799622 0.309103 0.512111
916 1 0.0407779 0.459606 0.510012
605 1 0.18199 0.296105 0.508416
424 2 0.01703 0.306233 0.504808
798 5 0.205851 0.389363 0.512077
1013 1 0.350666 0.381088 0.507589
317 3 0.227709 0.457305 0.581254
611 1 0.237557 0.32396 0.549427
215 1 0.201679 0.40789 0.568583
367 5 0.0552264 0.386989 0.533847
366 1 0.0533843 0.305207 0.55111
759 1 0.149607 0.316347 0.566331
231 2 0.107834 0.274939 0.556781
153 1 0.1353 0.257597 0.537447
685 2 0.0187758 0.497856 0.525767
127 1 0.149917 0.380378 0.539386
352 1 0.069566 0.46765 0.594617
174 2 0.186272 0.358693 0.555456
439 5 0.126893 0.466215 0.555335
556 1 0.176271 0.476424 0.596524
652 5 0.404184 0.294716 0.55032
342 5 0.139999 0.480133 0.517774
1099 1 0.414159 0.376599 0.568131
348 5 0.48974 0.34251 0.55329
812 2 0.416827 0.340737 0.585787
1118 1 0.277575 0.42683 0.593411
943 5 0.47775 0.306459 0.520098
1057 1 0.317607 0.255226 0.554993
1194 5 0.330084 0.426019 0.563177
861 1 0.483175 0.490097 0.595628
105 2 0.291919 0.300467 0.541587
1105 1 0.335377 0.347109 0.538828
257 3 0.00512818 0.0113382 0.49096
487 5 0.49453 0.0596232 0.552173
86 1 0.421772 0.00323608 0.45919
130 5 0.00600536 0.349374 0.579629
364 1 0.00595131 0.361872 0.494141
930 2 0.49745 0.0170216 0.502443
640 1 0.0425966 0.00292293 0.56822
851 1 0.411023 0.492229 0.453453
871 3 0.00421385 0.434187 0.491275
976 5 0.490527 0.362799 0.414301
123 1 0.247898 0.161501 0.646846
610 1 0.248502 0.182455 0.61372
1131 5 0.179749 0.0246827 0.674073
142 1 0.175736 0.119782 0.672214
711 5 0.0938629 0.0970316 0.61318
700 1 0.146427 0.150425 0.639331
359 1 0.213131 0.0654411 0.645491
1126 1 0.102024 0.193874 0.611252
47 2 0.113165 0.202171 0.632264
94 1 0.0551929 0.207431 0.641988
230 2 0.195104 0.127222 0.651871
1108 5 0.0299809 0.0319808 0.629932
986 1 0.236416 0.0227567 0.612706
136 5 0.00549583 0.31802 0.621296
162 1 0.0141748 0.123441 0.629257
1094 2 0.258031 0.0403632 0.632286
1072 1 0.449573 0.167118 0.635942
753 1 0.474559 0.0607483 0.633937
209 1 0.419543 0.244521 0.613859
255 1 0.345244 0.182612 0.627977
365 1 0.291409 0.0930296 0.626644
111 2 0.402393 0.212877 0.631786
651 2 0.286838 0.158374 0.628972
415 1 0.426636 0.109912 0.605326
525 2 0.471514 0.38006 0.621512
1042 2 0.494111 0.121832 0.633499
1085 2 0.121037 0.487025 0.60631
344 1 0.449409 0.369753 0.601403
458 1 0.150922 0.254446 0.634475
51 1 0.155545 0.388825 0.653164
343 1 0.245059 0.30041 0.626033
1114 2 0.183253 0.296358 0.620374
1145 1 0.0619978 0.379918 0.638829
1183 5 0.184471 0.297678 0.66535
870 1 0.15023 0.351997 0.620869
631 1 0.127341 0.452596 0.624831
1069 2 0.122848 0.394098 0.634767
639 5 0.256712 0.446464 0.642704
551 1 0.185446 0.262672 0.601902
909 5 0.0328894 0.366681 0.667799
1000 1 0.335716 0.407785 0.654267
54 1 0.401263 0.492021 0.643048
71 2 0.373671 0.432582 0.639546
999 1 0.393571 0.255926 0.647116
31 5 0.345106 0.317473 0.623055
607 2 0.32089 0.463412 0.603407
202 5 0.307913 0.314863 0.654721
956 1 0.341038 0.439766 0.621757
1150 1 0.424695 0.393088 0.634183
50 5 0.118325 0.483657 0.671246
370 1 0.111033 0.531497 0.357498
388 1 0.228112 0.744437 0.38992
1136 1 0.178247 0.757485 0.359732
575 1 0.230025 0.502139 0.390976
1062 5 0.477003 0.789262 0.394803
1101 1 0.15735 0.580102 0.385483
763 1 0.0711293 0.744898 0.35243
708 1 0.127536 0.654782 0.359278
85 1 0.0493132 0.595783 0.375543
839 2 0.119039 0.720166 0.36482
572 2 0.168086 0.523693 0.394851
1144 3 0.113904 0.592737 0.368034
422 5 0.00345693 0.70809 0.375978
1135 1 0.113068 0.723793 0.385727
429 5 0.225718 0.645114 0.382143
734 5 0.340445 0.698992 0.383471
919 1 0.425288 0.540421 0.39767
1033 1 0.411577 0.643361 0.342667
1064 1 0.482509 0.59067 0.363659
918 1 0.401506 0.53992 0.350896
715 2 0.418917 0.599344 0.35732
579 1 0.383727 0.610279 0.375091
124 2 0.405506 0.600973 0.396442
668 5 0.419822 0.616013 0.310705
985 5 0.325675 0.514938 0.394642
598 1 0.457108 0.639842 0.398497
1122 1 0.241671 0.95296 0.365689
1088 2 0.206492 0.902108 0.371406
286 1 0.23072 0.843613 0.370548
797 1 0.192972 0.910968 0.393223
89 1 0.148815 0.902853 0.361499
750 5 0.312797 0.858652 0.352207
416 1 0.0499475 0.936945 0.356195
6 5 0.0269749 0.836608 0.357546
519 2 0.109694 0.953163 0.361465
747 1 0.111166 0.964876 0.383466
853 5 0.148837 0.814535 0.392158
679 1 0.294725 0.902844 0.393711
404 1 0.303926 0.765386 0.363242
1186 1 0.487325 0.951874 0.361282
697 5 0.366017 0.935569 0.378307
758 1 0.43641 0.872499 0.378229
52 5 0.35884 0.820126 0.383567
176 5 0.39939 0.744333 0.35078
500 5 0.459 0.979842 0.316875
634 2 0.490745 0.908701 0.376874
84 3 0.236862 0.77297 0.369435
914 1 0.499775 0.940169 0.395102
1007 1 0.176877 0.609879 0.482797
12 5 0.0922007 0.744928 0.474831
1157 1 0.0936434 0.644026 0.463931
844 2 0.238279 0.751758 0.48768
531 1 0.220419 0.729891 0.427114
718 1 0.248759 0.632862 0.420286
620 2 0.199545 0.669982 0.428066
135 1 0.18572 0.653527 0.448478
1058 1 0.148219 0.667109 0.414822
670 1 0.145282 0.561153 0.453048
444 1 0.151224 0.527809 0.415716
445 3 0.151275 0.50869 0.438171
994 5 0.0378468 0.602683 0.441394
446 1 0.045804 0.681123 0.406968
1137 2 0.104123 0.707966 0.406733
1169 2 0.153179 0.619516 0.463016
221 2 0.291346 0.817687 0.578194
11 1 0.17389 0.745001 0.488335
395 5 0.361283 0.998121 0.512298
1112 3 0.204573 0.570279 0.500046
310 5 0.279706 0.913246 0.544649
739 5 0.0514554 0.576208 0.41099
45 1 0.213381 0.500049 0.498131
1083 1 0.325372 0.633961 0.474857
213 5 0.368825 0.540067 0.47616
1002 1 0.267768 0.519939 0.468773
1018 2 0.304021 0.643739 0.494526
349 1 0.26572 0.697221 0.495185
1197 2 0.447957 0.747361 0.466207
749 1 0.397077 0.70485 0.468096
554 5 0.449595 0.656585 0.491996
238 1 0.485509 0.555358 0.431478
501 5 0.476187 0.66104 0.428986
499 1 0.411722 0.728212 0.428906
528 1 0.409815 0.604746 0.455782
1049 3 0.453352 0.549839 0.451779
1031 1 0.33104 0.65484 0.441324
789 1 0.298756 0.556095 0.435736
562 1 0.322129 0.747748 0.407984
847 1 0.351354 0.608423 0.4095
911 2 0.308459 0.612936 0.426615
740 2 0.276098 0.5066 0.447437
1038 2 0.367072 0.653388 0.459035
1156 3 0.253426 0.761696 0.410205
637 1 0.15564 0.989987 0.413953
426 1 0.0743044 0.862146 0.470914
1087 1 0.127936 0.957644 0.482303
167 5 0.150352 0.863595 0.49046
374 1 0.240563 0.901367 0.487521
705 2 0.232953 0.915154 0.446759
603 1 0.242892 0.925732 0.425164
475 5 0.0261786 0.919112 0.427593
823 5 0.169368 0.777176 0.447422
180 5 0.114015 0.867948 0.441778
35 1 0.104354 0.761457 0.418649
594 1 0.174119 0.935948 0.45231
988 2 0.128306 0.9734 0.461406
252 1 0.00719131 0.940654 0.487738
892 1 0.0735375 0.961461 0.451398
997 5 0.0422661 0.784123 0.442519
334 1 0.103043 0.888909 0.408587
434 1 0.252722 0.803572 0.499673
234 3 0.361353 0.975255 0.592902
592 1 0.365251 0.837604 0.538835
70 2 0.0190024 0.88227 0.479655
877 1 0.443791 0.989445 0.493265
815 2 0.135204 0.940143 0.401118
183 2 0.246969 0.893522 0.406693
941 1 0.344803 0.969952 0.483214
764 1 0.330883 0.838425 0.468555
881 1 0.256944 0.76406 0.467391
1015 3 0.275387 0.958563 0.480782
294 1 0.425387 0.90551 0.473444
293 1 0.460787 0.764827 0.487523
805 5 0.499425 0.771699 0.432925
874 2 0.408125 0.9678 0.477253
140 1 0.386819 0.82304 0.415459
699 1 0.399336 0.933274 0.411501
958 3 0.391125 0.860218 0.460489
325 1 0.431418 0.802084 0.456464
277 1 0.471696 0.872024 0.425896
898 3 0.448806 0.978102 0.406207
356 2 0.408998 0.879793 0.42224
1034 1 0.374417 0.887833 0.4405
226 1 0.276284 0.947872 0.457597
138 1 0.322284 0.783915 0.439708
513 2 0.287228 0.808483 0.455508
980 5 0.350224 0.976461 0.437016
144 2 0.36376 0.766089 0.423283
942 1 0.240415 0.849801 0.448875
386 1 0.24114 0.829821 0.409805
318 1 0.00696859 0.836263 0.495373
1189 5 0.143836 0.679941 0.508363
549 1 0.0629832 0.663233 0.525843
1147 5 0.0775698 0.585113 0.510629
665 2 0.0169584 0.706284 0.526005
657 1 0.175537 0.581961 0.520437
618 5 0.241335 0.51674 0.529491
655 5 0.245247 0.655816 0.531726
120 1 0.233009 0.60854 0.561042
910 5 0.130301 0.61906 0.547334
182 1 0.152473 0.546211 0.569304
39 1 0.0680086 0.518898 0.537601
616 1 0.0338616 0.625874 0.578609
506 1 0.144552 0.641833 0.57979
1142 5 0.0569539 0.53257 0.571136
820 2 0.0837703 0.662048 0.5854
751 1 0.163117 0.72352 0.550794
145 1 0.0787809 0.718055 0.574341
1061 2 0.188654 0.594633 0.576327
7 1 0.00987933 0.735895 0.507156
544 1 0.219223 0.588696 0.595042
952 2 0.429146 0.50293 0.584564
307 2 0.369779 0.696137 0.524281
678 1 0.354555 0.655003 0.507818
568 5 0.351024 0.553968 0.515304
168 1 0.269524 0.597088 0.503502
978 2 0.467127 0.523828 0.508312
283 1 0.40085 0.745822 0.514702
387 1 0.429658 0.566097 0.498791
581 1 0.41471 0.66633 0.536917
902 1 0.408758 0.67083 0.570742
181 1 0.423822 0.567898 0.586063
1170 2 0.43631 0.69959 0.554232
541 5 0.407394 0.582194 0.551067
281 1 0.316887 0.560479 0.545539
79 1 0.319223 0.710856 0.535599
1 1 0.324234 0.600555 0.577323
143 1 0.263966 0.510004 0.570706
1028 3 0.384746 0.624073 0.585202
534 2 0.285274 0.570048 0.563834
886 5 0.264223 0.708421 0.56165
268 1 0.447883 0.519173 0.529339
1023 1 0.280171 0.866154 0.59256
862 1 0.011249 0.985151 0.535184
949 5 0.0164922 0.883055 0.523748
490 5 0.124396 0.827545 0.525863
1050 1 0.0936077 0.923199 0.514032
474 1 0.166949 0.999992 0.512544
576 2 0.114974 0.975559 0.503012
246 1 0.210747 0.874395 0.520833
702 1 0.0278696 0.752401 0.541531
841 5 0.262907 0.785826 0.53433
1116 1 0.220741 0.946413 0.590209
1141 1 0.215411 0.990483 0.54445
262 1 0.160227 0.758218 0.58382
727 3 0.0746614 0.87154 0.563748
860 2 0.0622788 0.986019 0.548714
451 5 0.159406 0.969594 0.569762
405 1 0.0886013 0.897136 0.584586
765 1 0.11538 0.817191 0.559792
399 5 0.183985 0.890864 0.549011
376 1 0.0924706 0.928813 0.551265
482 1 0.0135235 0.846673 0.556994
567 2 0.128559 0.756357 0.565577
816 1 0.254994 0.829376 0.561378
1115 1 0.283867 0.76037 0.58673
1113 1 0.495412 0.801853 0.52058
1011 2 0.254364 0.8687 0.505477
1184 1 0.31403 0.881048 0.512562
495 1 0.401113 0.92897 0.528964
1093 2 0.373175 0.87598 0.520777
41 1 0.272765 0.980086 0.515517
511 1 0.413809 0.844236 0.507968
83 2 0.444802 0.788406 0.506917
368 2 0.395805 0.820301 0.556825
414 1 0.458703 0.967516 0.558057
719 3 0.463825 0.953429 0.535236
1095 1 0.453616 0.784196 0.590891
315 1 0.422157 0.761846 0.552984
484 1 0.43949 0.866703 0.560136
450 2 0.439915 0.921773 0.571883
360 1 0.463649 0.908288 0.59096
731 1 0.353079 0.821178 0.572721
905 1 0.376018 0.932376 0.575365
440 5 0.229263 0.687871 0.596857
361 5 0.0066787 0.607816 0.550131
305 1 0.496475 0.712478 0.457778
462 5 0.49632 0.618029 0.526284
178 1 0.499501 0.689779 0.55339
1111 1 0.0811261 0.996141 0.599013
993 5 0.00675675 0.868393 0.400317
606 1 0.00117459 0.757911 0.472787
913 5 0.0969474 0.689432 0.655605
68 1 0.216446 0.55505 0.629359
852 2 0.247579 0.693129 0.663033
1046 1 0.00544546 0.929557 0.600687
329 1 0.231338 0.634955 0.653724
950 2 0.191591 0.587473 0.64671
710 1 0.224107 0.740422 0.650075
1166 1 0.214858 0.694974 0.68188
627 1 0.0654045 0.604569 0.66766
819 1 0.0873731 0.649577 0.606966
1020 1 0.033154 0.745177 0.637038
609 2 0.0921982 0.605131 0.622481
704 1 0.186899 0.548655 0.663443
891 1 0.104977 0.548903 0.611587
455 1 0.138718 0.614743 0.637824
955 1 0.0362337 0.599502 0.633394
393 5 0.143444 0.630676 0.685452
906 2 0.0234601 0.575944 0.653968
1104 1 0.0374367 0.513024 0.652488
931 1 0.299022 0.99738 0.642042
282 5 0.48159 0.624236 0.60746
459 1 0.0150757 0.722815 0.670243
437 5 0.285912 0.624823 0.690602
483 1 0.472405 0.545373 0.626423
1008 1 0.4235 0.726734 0.652414
1191 1 0.477742 0.739962 0.620943
1074 2 0.426449 0.553354 0.641789
106 1 0.454355 0.572706 0.659639
119 1 0.384062 0.650262 0.60672
125 1 0.310794 0.698732 0.668086
1125 2 0.251735 0.570188 0.612702
186 2 0.357569 0.726256 0.655541
923 1 0.290137 0.618719 0.618936
733 1 0.28906 0.519173 0.608043
927 1 0.342848 0.694604 0.636889
363 1 0.380943 0.593974 0.63535
129 2 0.349813 0.640651 0.624946
17 2 0.498199 0.747326 0.600475
1180 5 0.372739 0.747833 0.601008
867 5 0.375822 0.85996 0.604825
1103 2 0.466698 0.997744 0.638541
937 3 0.222564 0.895502 0.644548
442 2 0.229197 0.893265 0.602397
1167 2 0.220367 0.788814 0.635212
588 1 0.198117 0.764865 0.616348
653 1 0.241824 0.907623 0.622924
80 1 0.176775 0.838587 0.639773
712 1 0.0947403 0.789184 0.610197
1067 2 0.154787 0.791098 0.602326
502 2 0.00597634 0.863361 0.645554
802 2 0.0332763 0.780594 0.617915
244 3 0.123648 0.888804 0.640815
324 1 0.169555 0.937227 0.648722
1124 2 0.0696274 0.932627 0.601874
1003 1 0.0668756 0.87492 0.652424
60 1 0.0967781 0.909112 0.619945
345 1 0.0117022 0.836968 0.625712
1123 1 0.351776 0.959237 0.61461
205 5 0.337434 0.899415 0.674138
104 5 0.212532 0.804681 0.683627
177 3 0.339803 0.832119 0.639469
217 1 0.278987 0.812856 0.630194
960 1 0.254284 0.866884 0.662224
1110 2 0.350986 0.962162 0.636015
1014 1 0.405745 0.986304 0.644474
1106 1 0.401894 0.805462 0.630107
338 1 0.492928 0.806686 0.648735
838 1 0.477327 0.958303 0.621839
491 2 0.450668 0.771258 0.637931
132 1 0.339264 0.789622 0.657304
908 1 0.347625 0.899283 0.641619
521 1 0.180031 0.851675 0.600137
285 1 0.713975 0.158648 0.388204
725 1 0.649908 0.0626165 0.369526
464 1 0.708227 0.129235 0.350355
1178 2 0.709951 0.213047 0.377362
1092 2 0.70165 0.0676989 0.356439
810 1 0.755496 0.0472882 0.367025
1016 5 0.59257 0.144066 0.368853
321 1 0.545774 0.0430787 0.369617
934 1 0.517846 0.229922 0.368616
1148 2 0.599103 0.0267891 0.380283
757 1 0.514685 0.152589 0.345756
328 2 0.523657 0.214565 0.347422
688 1 0.689888 0.228028 0.337081
845 1 0.521374 0.0222416 0.333542
984 1 0.654055 0.225471 0.368391
121 5 0.591369 0.0863929 0.33447
267 1 0.584227 0.226274 0.342216
799 2 0.753693 0.317062 0.394567
903 1 0.693324 0.0291929 0.338587
807 5 0.581286 0.403554 0.324502
1026 1 0.759659 0.214842 0.362712
614 1 0.997507 0.197598 0.349113
1073 2 0.81684 0.0635897 0.37331
818 2 0.845504 0.120492 0.338004
330 1 0.901004 0.152161 0.33427
540 5 0.826713 0.178567 0.380339
957 1 0.943505 0.0609939 0.396304
992 5 0.937869 0.0739275 0.363678
288 2 0.93981 0.200162 0.338796
1068 1 0.796268 0.158345 0.331876
990 1 0.842854 0.110869 0.360431
107 1 0.8444 0.0648514 0.327483
585 3 0.74007 0.184345 0.341944
389 1 0.971912 0.225119 0.320507
341 1 0.929056 0.446586 0.38142
1163 1 0.813545 0.0874787 0.393219
1045 1 0.831751 0.315324 0.359314
159 2 0.99437 0.0228399 0.392559
555 1 0.767556 0.377485 0.341484
497 5 0.695025 0.405026 0.327462
1032 1 0.85479 0.0119211 0.371099
940 1 0.589307 0.332802 0.381714
729 1 0.635441 0.316237 0.351295
16 2 0.64227 0.252342 0.348111
396 1 0.743391 0.460845 0.378364
254 2 0.678414 0.460604 0.378281
77 1 0.65156 0.407093 0.369928
774 1 0.559949 0.39297 0.355214
1192 2 0.609088 0.361895 0.364022
428 1 0.637986 0.484183 0.330653
477 5 0.957848 0.369515 0.328244
649 1 0.658541 0.476685 0.398236
732 2 0.805193 0.455541 0.384102
676 1 0.749678 0.355158 0.37685
692 2 0.791271 0.363796 0.360583
745 3 0.902134 0.413515 0.362268
1010 1 0.895279 0.264888 0.382657
1096 1 0.721225 0.264889 0.390725
436 1 0.919608 0.444595 0.343159
299 1 0.924 0.349393 0.362075
1200 1 0.832861 0.413928 0.369109
261 1 0.906528 0.247332 0.349369
947 2 0.891894 0.29487 0.363437
686 2 0.978531 0.489715 0.381709
835 1 0.970382 0.00476099 0.344956
921 5 0.937201 0.0491701 0.316966
822 5 0.614551 0.252707 0.397593
297 1 0.815262 0.308523 0.398712
840 1 0.593627 0.0547365 0.399299
1019 5 0.547234 0.100766 0.466054
1030 2 0.529006 0.24411 0.489652
146 1 0.570791 0.199308 0.481837
691 1 0.626512 0.114759 0.487734
713 1 0.649731 0.0173097 0.500294
613 2 0.630413 0.175025 0.478755
179 1 0.673725 0.208139 0.489655
469 5 0.733437 0.0439368 0.481301
783 1 0.679884 0.0690458 0.456259
2 1 0.613573 0.100562 0.431108
454 1 0.642414 0.165026 0.457539
401 5 0.73111 0.212764 0.456985
128 5 0.611512 0.01585 0.470252
489 1 0.712768 0.130111 0.431429
864 2 0.662033 0.118843 0.443975
795 5 0.678967 0.200802 0.413632
3 2 0.582257 0.104822 0.411936
30 1 0.518033 0.1071 0.415876
115 1 0.518438 0.245303 0.406437
517 5 0.700077 0.0692598 0.401872
1077 3 0.511219 0.494357 0.42231
736 5 0.811643 0.0361539 0.591842
1175 1 0.602955 0.160489 0.402975
770 1 0.524777 0.000516238 0.455679
693 5 0.772141 0.244364 0.494859
478 1 0.779458 0.139749 0.474728
682 5 0.947302 0.121605 0.490856
253 5 0.879588 0.0544453 0.472032
622 2 0.832058 0.176781 0.476104
493 5 0.897292 0.133074 0.40572
116 1 0.853143 0.18333 0.496667
199 5 0.862046 0.0244858 0.412419
683 1 0.977398 0.238199 0.459333
782 1 0.816634 0.235557 0.468386
582 5 0.904301 0.197655 0.440634
1179 5 0.970549 0.131656 0.453296
522 5 0.789581 0.167353 0.415299
214 1 0.865471 0.22747 0.413928
829 1 0.878394 0.146877 0.465314
95 5 0.774976 0.0794991 0.448284
672 1 0.75141 0.254809 0.427767
737 2 0.769552 0.3832 0.588736
218 5 0.596834 0.375437 0.475137
1052 5 0.681848 0.300548 0.487173
1168 5 0.731452 0.446161 0.489969
546 2 0.599507 0.292472 0.444782
721 5 0.620876 0.379361 0.412063
593 3 0.654884 0.489102 0.456447
433 1 0.725701 0.338955 0.44722
312 1 0.650624 0.288707 0.430118
1004 2 0.746438 0.394195 0.455337
44 2 0.712503 0.305332 0.429648
57 1 0.625405 0.279472 0.463598
37 1 0.725719 0.342545 0.411973
669 1 0.696967 0.433385 0.458362
767 1 0.595112 0.47817 0.467123
586 1 0.579792 0.352114 0.440803
536 1 0.527819 0.463471 0.44122
1133 1 0.554227 0.247323 0.438699
863 2 0.532952 0.472809 0.462043
591 5 0.989459 0.381329 0.407394
1044 1 0.582941 0.0056511 0.568199
880 1 0.506505 0.423039 0.472645
687 1 0.503607 0.0759546 0.493589
1091 1 0.775153 0.379223 0.473714
761 3 0.834698 0.375967 0.485583
476 5 0.900948 0.267908 0.480695
357 2 0.878018 0.482976 0.494182
263 1 0.888991 0.36811 0.47281
1138 1 0.939941 0.45915 0.496302
735 1 0.835667 0.436338 0.495487
636 1 0.866132 0.489029 0.429416
674 1 0.810123 0.438825 0.404826
64 2 0.806432 0.465201 0.425092
131 1 0.913703 0.323032 0.411663
1021 5 0.835018 0.312791 0.450617
1190 5 0.931949 0.438528 0.416971
1035 5 0.91747 0.446141 0.452637
103 1 0.788546 0.425349 0.441214
557 2 0.500696 0.241218 0.426855
467 2 0.874023 0.280877 0.402329
604 5 0.979492 0.284695 0.431208
1121 2 0.564017 0.137131 0.530023
1054 5 0.995638 0.350296 0.459546
164 1 0.596074 0.0891104 0.52006
58 1 0.698121 0.0995251 0.514542
901 2 0.642651 0.0808824 0.505323
304 1 0.589687 0.193237 0.524714
1041 1 0.567659 0.132142 0.551449
936 1 0.718697 0.0333065 0.591233
1139 1 0.652679 0.0923455 0.568748
53 1 0.691928 0.134838 0.596934
626 2 0.611056 0.142014 0.567623
210 5 0.746944 0.0642486 0.540199
339 2 0.702836 0.0893491 0.582402
43 5 0.694068 0.19847 0.525386
369 1 0.641918 0.194426 0.560868
971 1 0.685486 0.237931 0.589601
830 1 0.581813 0.156424 0.586335
350 2 0.561083 0.0232747 0.58792
250 2 0.535068 0.180236 0.599003
1195 1 0.510627 0.063293 0.588811
394 1 0.977476 0.0417819 0.472951
1154 5 0.783812 0.123853 0.506477
515 5 0.876478 0.106723 0.520726
408 1 0.964762 0.140246 0.526603
384 5 0.900036 0.222388 0.523864
224 1 0.811273 0.0360381 0.516629
1198 1 0.814126 0.188209 0.552285
157 1 0.902717 0.0506322 0.578916
1005 1 0.84191 0.0895343 0.555397
332 1 0.965194 0.126667 0.563193
1187 2 0.880093 0.0386656 0.559604
809 2 0.975944 0.129636 0.584391
118 2 0.809224 0.136779 0.565354
147 1 0.917733 0.0248798 0.542207
570 1 0.926739 0.151012 0.59737
200 2 0.994882 0.151887 0.545266
273 1 0.823884 0.159629 0.584847
228 1 0.750552 0.108059 0.569004
430 5 0.809834 0.27221 0.597998
794 1 0.957753 0.0274798 0.508902
677 1 0.990408 0.215675 0.547855
801 1 0.563655 0.499383 0.549698
73 2 0.586451 0.258786 0.525612
152 1 0.611213 0.374288 0.59942
895 1 0.542669 0.395133 0.503508
427 2 0.600053 0.411553 0.512619
509 1 0.591801 0.402447 0.534023
878 1 0.556664 0.274336 0.506763
924 1 0.606859 0.475728 0.508357
235 1 0.642329 0.290001 0.527307
279 1 0.651468 0.377579 0.506229
899 1 0.730288 0.495961 0.515685
948 3 0.684902 0.342461 0.523349
431 2 0.692551 0.472109 0.585502
379 2 0.71963 0.465202 0.534383
720 1 0.73902 0.266211 0.560158
890 1 0.734724 0.432674 0.595716
831 2 0.615788 0.380273 0.576936
98 1 0.732607 0.330589 0.585722
203 2 0.696177 0.283493 0.57544
716 1 0.708697 0.400813 0.535041
391 1 0.658053 0.428031 0.574254
351 1 0.64123 0.321349 0.57211
189 1 0.778128 0.470747 0.545038
1119 3 0.54747 0.432397 0.548905
1056 1 0.545092 0.273638 0.541388
850 1 0.560092 0.39549 0.567541
1081 5 0.553207 0.27152 0.571434
172 1 0.670256 0.495607 0.543247
869 3 0.989845 0.284057 0.54491
612 1 0.745054 0.321285 0.516116
884 1 0.821531 0.271436 0.531727
843 5 0.917679 0.401055 0.525659
488 1 0.979796 0.301821 0.522533
825 2 0.806867 0.325749 0.521763
133 1 0.839488 0.332224 0.503576
18 1 0.796322 0.3994 0.570169
982 3 0.804586 0.254805 0.552957
1102 1 0.878497 0.444359 0.554709
769 1 0.840612 0.290471 0.569288
291 1 0.897004 0.355759 0.588112
1158 1 0.916607 0.254445 0.590589
623 1 0.984238 0.452519 0.574325
1100 2 0.818157 0.422575 0.550784
946 1 0.94217 0.312208 0.559903
742 2 0.901542 0.302264 0.575956
266 1 0.979449 0.461998 0.538812
529 1 0.818292 0.374333 0.536469
530 3 0.93995 0.473478 0.557703
726 1 0.841694 0.00453072 0.447371
746 1 0.982459 0.163736 0.420654
466 1 0.509438 0.283022 0.47434
1059 1 0.994252 0.498274 0.402318
1109 1 0.50046 0.136201 0.525152
944 1 0.650383 0.499461 0.599987
300 2 0.573972 0.187989 0.651315
1043 1 0.633459 0.196236 0.657273
788 1 0.733133 0.164813 0.650079
354 2 0.697565 0.193789 0.605312
441 2 0.630155 0.0133201 0.619611
748 1 0.667548 0.194128 0.624362
875 1 0.609099 0.0404754 0.601127
1152 1 0.658425 0.0487018 0.634286
122 5 0.725733 0.0679548 0.662043
656 2 0.68808 0.207717 0.645003
539 1 0.537911 0.13572 0.64941
1025 1 0.530989 0.141815 0.616118
240 1 0.546223 0.239693 0.607327
601 1 0.544623 0.235606 0.641893
448 5 0.745585 0.0818336 0.630411
615 1 0.943701 0.0157139 0.639941
932 1 0.82368 0.0417729 0.656385
56 1 0.811633 0.364716 0.604658
33 5 0.869818 0.124641 0.643987
383 1 0.960724 0.166038 0.655546
93 1 0.961868 0.212922 0.623591
666 1 0.860076 0.206591 0.614149
975 5 0.921983 0.0597326 0.61135
335 1 0.821226 0.107539 0.616657
292 2 0.816843 0.16339 0.606394
1151 1 0.76056 0.193358 0.609895
337 5 0.976532 0.453923 0.634483
507 2 0.920546 0.2104 0.606352
355 1 0.723307 0.379807 0.64847
46 5 0.875347 0.0409898 0.687003
223 1 0.628519 0.411021 0.629447
933 2 0.637649 0.3573 0.617417
642 2 0.725519 0.441578 0.643233
527 1 0.700172 0.340171 0.62026
457 2 0.735483 0.321378 0.637861
771 1 0.710178 0.268568 0.645533
1130 2 0.573576 0.440683 0.634732
641 1 0.55865 0.43301 0.65511
463 2 0.54476 0.276249 0.625153
1009 1 0.602762 0.30783 0.624824
193 1 0.518205 0.427196 0.622731
471 1 0.684747 0.48765 0.648534
524 1 0.506309 0.327499 0.626117
1182 5 0.89565 0.22524 0.674927
1080 2 0.876899 0.376185 0.607003
972 1 0.879378 0.435266 0.615638
1040 1 0.887854 0.291535 0.656872
963 1 0.860486 0.392092 0.64636
569 1 0.799065 0.313416 0.6371
65 1 0.894516 0.332861 0.622575
1132 2 0.851059 0.447778 0.634213