ITEM: TIMESTEP
2000
ITEM: NUMBER OF ATOMS
1200
ITEM: BOX BOUNDS pp pp pp
-7.6266250050336382e-02 2.5098596345622489e+01
-7.6266250050336382e-02 2.5098596345622489e+01
-2.5251128845723162e+01 5.0273458941295317e+01
ITEM: ATOMS id type xs ys zs
760 1 0.070355 0.145138 0.393906
419 1 0.227469 0.146848 0.371436
108 1 0.220799 0.0385922 0.357635
96 1 0.0396658 0.052776 0.385408
1076 1 0.191433 0.111307 0.337617
1193 1 0.109567 0.102427 0.363442
580 5 0.171403 0.228116 0.363564
269 2 0.0125343 0.230481 0.330068
638 5 0.149266 0.157691 0.316359
390 2 0.0905711 0.0915816 0.383474
645 3 0.157434 0.0645496 0.350613
967 1 0.0657025 0.206885 0.32211
542 1 0.14474 0.069891 0.393317
804 1 0.232924 0.00947821 0.390543
1149 3 0.244367 0.107566 0.353523
762 1 0.119193 0.00730175 0.350448
1146 5 0.0193059 0.235478 0.378872
992 5 0.0126232 0.0836222 0.354508
635 5 0.320588 0.197901 0.335904
787 1 0.400484 0.240783 0.351497
314 1 0.441012 0.184366 0.387857
590 2 0.482532 0.234303 0.384543
559 1 0.433856 0.0377645 0.35952
973 5 0.429572 0.126006 0.351154
468 2 0.392483 0.147208 0.395918
1174 1 0.309791 0.113883 0.349308
1037 1 0.377822 0.102873 0.381304
432 5 0.333872 0.191081 0.367019
196 2 0.389248 0.0412287 0.374311
465 1 0.333227 0.0107421 0.369704
907 1 0.412909 0.0109325 0.391212
624 3 0.496648 0.009251 0.357054
929 1 0.484206 0.246622 0.332308
309 5 0.276433 0.118263 0.398637
290 1 0.346542 0.190938 0.399349
575 1 0.221614 0.498761 0.393385
26 5 0.235397 0.436739 0.330881
577 2 0.0818684 0.464605 0.363621
82 1 0.193478 0.318522 0.35042
1173 1 0.0388442 0.324059 0.397712
40 5 0.119265 0.334766 0.327989
813 1 0.0200443 0.463078 0.372524
403 5 0.14092 0.356382 0.374119
834 1 0.124308 0.468974 0.381876
418 1 0.0192423 0.292172 0.336182
915 1 0.0861319 0.413301 0.351058
904 5 0.0136515 0.358127 0.368079
533 1 0.133182 0.277473 0.396471
1071 1 0.255029 0.345398 0.376887
456 1 0.475461 0.329952 0.348541
917 2 0.4423 0.486519 0.390637
935 2 0.437343 0.283882 0.340963
893 5 0.338712 0.274054 0.385347
460 1 0.362686 0.434594 0.342548
1053 1 0.292006 0.3565 0.344918
565 5 0.296298 0.432773 0.379429
346 2 0.253102 0.318045 0.357567
703 2 0.410118 0.471901 0.351695
241 1 0.442496 0.286423 0.381618
373 1 0.402734 0.469864 0.373684
1171 1 0.46713 0.443208 0.348438
409 1 0.471775 0.387325 0.378109
1159 2 0.421887 0.348807 0.382396
412 2 0.35653 0.369038 0.345984
628 1 0.390386 0.327765 0.332643
660 1 0.280708 0.261004 0.358268
151 1 0.378077 0.358981 0.365674
397 2 0.0226403 0.224228 0.47106
885 5 0.194645 0.223914 0.47245
1185 5 0.105743 0.157439 0.48476
88 1 0.0169788 0.16288 0.476274
28 1 0.213037 0.120056 0.493904
62 5 0.242887 0.0428722 0.447141
953 5 0.0824493 0.0344101 0.432728
1060 5 0.143182 0.218338 0.438869
137 5 0.178598 0.121407 0.437677
377 2 0.0502468 0.165783 0.413085
537 1 0.218529 0.0682538 0.418817
15 5 0.068303 0.0708207 0.468044
353 1 0.0524457 0.23235 0.412039
1024 1 0.0942179 0.14619 0.427023
1070 2 0.188464 0.034862 0.403544
20 1 0.150554 0.0301829 0.456925
1017 1 0.0813945 0.236663 0.463667
382 5 0.216495 0.201566 0.402411
472 1 0.251898 0.0332439 0.478868
75 1 0.315785 0.0968159 0.495406
375 2 0.262031 0.0942684 0.483006
206 1 0.256227 0.23445 0.494869
407 1 0.480374 0.216061 0.49585
247 5 0.419862 0.103085 0.474324
378 2 0.468119 0.0221654 0.447849
516 1 0.463278 0.0878945 0.446435
406 1 0.469648 0.183476 0.432269
91 1 0.418117 0.11902 0.412662
920 2 0.464557 0.120816 0.427526
211 5 0.340784 0.025368 0.413982
858 1 0.267426 0.180482 0.436316
443 2 0.311647 0.145209 0.446943
14 1 0.330496 0.0891174 0.438595
968 1 0.281088 0.12718 0.465439
72 1 0.361661 0.181829 0.451822
922 5 0.346322 0.217941 0.481733
557 2 0.494769 0.240435 0.427076
479 1 0.454533 0.00253427 0.427541
86 1 0.424652 0.000731305 0.462432
779 5 0.131604 0.453289 0.473624
242 1 0.00626751 0.259171 0.488838
754 1 0.031743 0.455767 0.473079
78 5 0.14001 0.304891 0.476898
663 1 0.108771 0.372206 0.457958
1079 5 0.241618 0.421581 0.413876
435 1 0.183155 0.304105 0.446719
871 3 0.00805638 0.42963 0.492563
208 1 0.215213 0.498109 0.43776
827 1 0.0965527 0.313671 0.427816
689 2 0.136942 0.346666 0.441483
722 1 0.0843115 0.480421 0.443468
1128 2 0.0263947 0.461796 0.451853
249 2 0.0808805 0.288135 0.408791
265 1 0.163976 0.391499 0.428892
741 5 0.0748766 0.429164 0.414972
188 5 0.228137 0.317157 0.408551
364 1 0.00228117 0.361008 0.495121
1039 5 0.245213 0.380286 0.448055
322 5 0.365379 0.252186 0.426359
32 5 0.274723 0.277415 0.443435
851 1 0.404224 0.497871 0.453456
880 1 0.499496 0.422845 0.470113
34 1 0.252172 0.426411 0.477739
998 1 0.396066 0.360983 0.401766
102 5 0.494615 0.365206 0.445213
1078 1 0.367712 0.412026 0.469399
564 2 0.370717 0.36903 0.486226
139 5 0.255477 0.332518 0.494416
547 1 0.311536 0.496882 0.498625
561 1 0.345564 0.312939 0.481113
256 2 0.262318 0.485469 0.485398
447 2 0.480288 0.40752 0.49031
4 1 0.434221 0.361691 0.491349
204 1 0.451299 0.460502 0.498175
608 1 0.467254 0.458493 0.408075
696 5 0.409588 0.271073 0.462876
996 1 0.457465 0.29097 0.429312
109 1 0.309077 0.349169 0.421077
694 1 0.311795 0.463249 0.444496
494 2 0.358612 0.390176 0.416893
308 1 0.389137 0.402513 0.435189
633 1 0.3357 0.444009 0.408946
410 2 0.371224 0.443656 0.450233
69 2 0.221946 0.20716 0.596053
640 1 0.046338 0.00422462 0.569389
550 1 0.127182 0.119157 0.517567
574 5 0.034678 0.112133 0.50658
1155 1 0.139801 0.231795 0.502272
520 2 0.189579 0.123616 0.513807
811 1 0.214149 0.0687429 0.522877
643 1 0.218897 0.173656 0.522656
785 1 0.113849 0.084008 0.581669
857 1 0.20954 0.0598318 0.578913
114 2 0.246189 0.019019 0.59016
1089 1 0.0139118 0.075932 0.592268
1006 1 0.0527203 0.127487 0.548095
738 3 0.0740542 0.218932 0.58976
647 2 0.170276 0.108769 0.574711
192 1 0.162121 0.118291 0.553341
632 1 0.0207517 0.176032 0.584589
897 2 0.0666701 0.0429715 0.585499
826 3 0.111556 0.0995159 0.539412
680 1 0.10409 0.0313538 0.544147
548 1 0.19257 0.161356 0.584799
803 5 0.204946 0.203801 0.553323
219 1 0.115108 0.22841 0.571149
296 1 0.0631011 0.0143121 0.500041
545 2 0.215516 0.00421883 0.521781
991 5 0.332051 0.1224 0.588177
10 1 0.269542 0.238694 0.585516
23 1 0.351476 0.089027 0.529572
298 2 0.264564 0.214436 0.515101
101 1 0.3177 0.177182 0.515144
854 2 0.349002 0.123109 0.511658
470 2 0.456224 0.183117 0.512635
413 1 0.428961 0.222883 0.527334
684 1 0.48868 0.0185201 0.524514
833 1 0.408915 0.1425 0.506343
81 1 0.418605 0.0225622 0.590282
961 2 0.44642 0.0810259 0.587303
900 3 0.431326 0.22496 0.589388
945 5 0.475187 0.171635 0.554315
42 1 0.489979 0.18996 0.584255
1161 1 0.428828 0.0973589 0.567388
1066 5 0.377159 0.16912 0.548195
596 1 0.292522 0.165031 0.562605
1199 2 0.315012 0.219538 0.572052
220 1 0.307196 0.0280159 0.584497
646 5 0.278824 0.0775357 0.551379
837 5 0.370985 0.0354617 0.554361
438 1 0.373714 0.207714 0.57839
395 5 0.354826 0.0078903 0.513812
930 2 0.497375 0.0200433 0.503306
685 2 0.0174393 0.497653 0.52535
1117 5 0.107962 0.361267 0.590695
518 1 0.0566772 0.28225 0.597056
1001 2 0.134912 0.281156 0.515456
92 1 0.0742986 0.304784 0.511575
916 1 0.0416545 0.453969 0.511525
605 1 0.176464 0.328335 0.512068
424 2 0.013315 0.303884 0.503821
798 5 0.184397 0.420398 0.513693
317 3 0.228583 0.462556 0.586279
611 1 0.241987 0.338657 0.552013
215 1 0.195876 0.413709 0.572964
367 5 0.0653509 0.383869 0.529693
366 1 0.050028 0.287607 0.55237
759 1 0.148425 0.322487 0.564436
231 2 0.112242 0.275199 0.556159
153 1 0.135842 0.265139 0.536363
127 1 0.152595 0.400737 0.542128
352 1 0.0680575 0.470736 0.594365
174 2 0.188049 0.370693 0.556763
439 5 0.111243 0.46006 0.565484
130 5 0.00313051 0.348931 0.583853
786 2 0.00119644 0.463274 0.594284
372 1 0.35986 0.319277 0.593349
706 1 0.436514 0.486088 0.560095
977 1 0.26913 0.265731 0.527155
535 1 0.272646 0.430774 0.53026
227 1 0.449259 0.289437 0.578308
340 1 0.380923 0.483052 0.590411
966 1 0.375119 0.441481 0.534712
784 2 0.432937 0.462671 0.539747
348 5 0.48448 0.328202 0.548891
303 1 0.480518 0.419368 0.538051
558 5 0.255068 0.346091 0.593856
100 2 0.329254 0.406439 0.525204
1013 1 0.342968 0.392478 0.504495
652 5 0.40049 0.295984 0.546204
1099 1 0.40257 0.373448 0.564732
344 1 0.448309 0.374171 0.598263
812 2 0.412507 0.342225 0.58341
1118 1 0.285998 0.434323 0.595036
943 5 0.478938 0.30575 0.514079
1057 1 0.318141 0.265961 0.556894
1194 5 0.31686 0.420836 0.561664
105 2 0.288611 0.305703 0.542716
1105 1 0.331072 0.345317 0.534071
1131 5 0.154931 0.0294398 0.670477
142 1 0.181922 0.131663 0.671733
711 5 0.121166 0.0369535 0.633753
700 1 0.148345 0.153305 0.63833
359 1 0.215509 0.0723942 0.643943
1126 1 0.0976008 0.191564 0.610082
47 2 0.106445 0.199241 0.631005
94 1 0.0507006 0.19819 0.641843
230 2 0.199186 0.133555 0.651137
986 1 0.242525 0.0345146 0.611371
1108 5 0.00177499 0.030288 0.623211
1111 1 0.0831254 0.000129801 0.600331
123 1 0.2504 0.169661 0.645103
610 1 0.257972 0.171919 0.610439
1094 2 0.264537 0.0472097 0.631523
1072 1 0.445543 0.169659 0.636201
753 1 0.472196 0.0628854 0.631458
209 1 0.433794 0.234216 0.611601
255 1 0.345759 0.19526 0.627816
365 1 0.304206 0.097748 0.629552
111 2 0.405577 0.217561 0.630219
651 2 0.290533 0.161772 0.628675
415 1 0.422045 0.118884 0.60272
1042 2 0.487825 0.125492 0.630625
1103 2 0.460304 0.00288761 0.639559
909 5 0.0724966 0.284138 0.66489
50 5 0.101991 0.460747 0.658002
1085 2 0.120503 0.490118 0.607766
458 1 0.135879 0.25466 0.636267
51 1 0.17684 0.395223 0.648323
343 1 0.237604 0.299439 0.633879
1114 2 0.180382 0.289966 0.624756
1145 1 0.0759044 0.369349 0.643034
870 1 0.154432 0.34701 0.619356
631 1 0.115837 0.445599 0.623693
1069 2 0.128642 0.389369 0.634071
639 5 0.226137 0.472706 0.647494
551 1 0.189454 0.253102 0.606689
136 5 0.00380357 0.31933 0.625737
556 1 0.180708 0.484669 0.600635
1150 1 0.453708 0.412065 0.630329
525 2 0.486549 0.377118 0.614709
54 1 0.405949 0.498305 0.644789
1183 5 0.272957 0.342707 0.663592
1000 1 0.373767 0.395309 0.65353
71 2 0.398284 0.434266 0.638649
999 1 0.411252 0.261384 0.645466
31 5 0.345117 0.316506 0.627209
607 2 0.3329 0.470546 0.604896
202 5 0.453925 0.328197 0.660282
956 1 0.357722 0.439528 0.621677
370 1 0.0971464 0.52325 0.355467
388 1 0.231878 0.73227 0.393089
1136 1 0.171011 0.73657 0.36099
1101 1 0.152146 0.56813 0.382899
763 1 0.0661202 0.746527 0.357774
708 1 0.111772 0.649324 0.360281
85 1 0.0371285 0.585551 0.377239
839 2 0.112982 0.711704 0.366791
572 2 0.160972 0.510709 0.393262
1144 3 0.100688 0.582939 0.367924
1135 1 0.112245 0.714533 0.388834
429 5 0.198421 0.651525 0.391662
422 5 0.0127968 0.680259 0.342077
919 1 0.409142 0.537809 0.399003
734 5 0.322265 0.68723 0.384836
1033 1 0.397495 0.641952 0.341359
1064 1 0.483442 0.602409 0.360828
918 1 0.413268 0.538812 0.348495
715 2 0.419093 0.600479 0.355678
579 1 0.396406 0.609515 0.37622
124 2 0.403141 0.601239 0.397445
9 1 0.490997 0.51854 0.380971
176 5 0.365184 0.739121 0.339386
853 5 0.0527745 0.809058 0.399567
84 3 0.227579 0.763898 0.371686
1122 1 0.248117 0.935376 0.364463
1088 2 0.203549 0.896404 0.371243
286 1 0.210249 0.833363 0.370851
797 1 0.189127 0.907721 0.393716
89 1 0.150952 0.908857 0.360313
416 1 0.0461459 0.931244 0.35361
6 5 0.053882 0.837123 0.357755
519 2 0.102253 0.95332 0.360547
747 1 0.101627 0.958962 0.382291
52 5 0.350835 0.820183 0.381329
758 1 0.446466 0.869514 0.380848
750 5 0.251496 0.82378 0.339608
500 5 0.474418 0.915243 0.336168
679 1 0.292451 0.886608 0.393141
404 1 0.289913 0.755688 0.361722
697 5 0.370233 0.926228 0.379586
1186 1 0.499253 0.943196 0.363373
793 3 0.26487 0.998332 0.368958
914 1 0.499529 0.940611 0.397058
1007 1 0.17239 0.613974 0.483071
12 5 0.0758195 0.71556 0.485243
1157 1 0.0966789 0.654719 0.462399
531 1 0.219137 0.737591 0.431448
620 2 0.204656 0.675289 0.431501
135 1 0.198627 0.650065 0.450499
1058 1 0.153633 0.666503 0.41911
670 1 0.141659 0.564896 0.451374
444 1 0.136247 0.51625 0.412922
994 5 0.0461756 0.585072 0.442881
446 1 0.052844 0.656166 0.410429
1137 2 0.103742 0.699674 0.409924
1169 2 0.150784 0.620538 0.462721
1112 3 0.202739 0.578389 0.499288
739 5 0.0425971 0.55893 0.408111
45 1 0.208129 0.510127 0.494037
445 3 0.145051 0.50928 0.435942
718 1 0.253806 0.646327 0.420619
1083 1 0.325989 0.644196 0.47652
213 5 0.352242 0.545603 0.477707
1002 1 0.269417 0.524176 0.466783
1018 2 0.301339 0.651551 0.496348
349 1 0.259896 0.699831 0.499766
749 1 0.403334 0.708946 0.46889
554 5 0.444024 0.651798 0.492539
238 1 0.474103 0.556227 0.432356
501 5 0.464074 0.655004 0.435812
499 1 0.416838 0.731525 0.428908
528 1 0.41063 0.607835 0.458711
1049 3 0.446208 0.551779 0.453075
1031 1 0.338454 0.6588 0.441769
789 1 0.296866 0.564987 0.434447
562 1 0.321743 0.743259 0.413639
847 1 0.348449 0.61636 0.408288
911 2 0.310919 0.623254 0.426132
740 2 0.272513 0.51374 0.445311
1038 2 0.36952 0.658123 0.46056
598 1 0.455064 0.634247 0.402245
387 1 0.422317 0.567759 0.497235
985 5 0.30135 0.532704 0.403836
844 2 0.239491 0.756108 0.490917
11 1 0.175954 0.751876 0.490487
637 1 0.149432 0.987037 0.411611
426 1 0.0783617 0.855504 0.473667
1087 1 0.133015 0.957403 0.482676
167 5 0.160859 0.859737 0.487943
374 1 0.244615 0.904044 0.486114
705 2 0.242427 0.912151 0.446994
603 1 0.247653 0.917847 0.425314
475 5 0.0236051 0.910078 0.428393
823 5 0.179763 0.776985 0.45761
180 5 0.106743 0.855807 0.440476
35 1 0.0933575 0.750166 0.42286
594 1 0.180218 0.929296 0.451952
988 2 0.136764 0.968954 0.461257
252 1 0.00023717 0.933308 0.485762
892 1 0.0734513 0.963702 0.454507
997 5 0.0360825 0.79024 0.445762
334 1 0.094265 0.889553 0.409949
70 2 0.0197762 0.874061 0.479778
183 2 0.242905 0.886984 0.406844
386 1 0.232268 0.825991 0.4125
170 1 0.0161938 0.995792 0.412355
815 2 0.129649 0.934734 0.40088
877 1 0.442176 0.994869 0.495546
1197 2 0.451665 0.753339 0.469065
1156 3 0.254521 0.760754 0.412546
941 1 0.346434 0.965716 0.485224
764 1 0.34015 0.833933 0.473069
881 1 0.268754 0.761113 0.471421
1015 3 0.276491 0.96921 0.483022
294 1 0.433059 0.905953 0.475629
293 1 0.45709 0.776895 0.489354
1062 5 0.480086 0.788004 0.402594
874 2 0.40875 0.964099 0.480411
140 1 0.382841 0.824002 0.417029
699 1 0.394082 0.928378 0.411951
958 3 0.398631 0.860289 0.463822
325 1 0.438691 0.804921 0.457186
277 1 0.469983 0.872699 0.42781
898 3 0.446292 0.972641 0.407245
356 2 0.407147 0.879387 0.425073
1034 1 0.377331 0.890535 0.443918
226 1 0.278268 0.955729 0.457324
138 1 0.33091 0.782288 0.44398
513 2 0.298971 0.807539 0.460171
980 5 0.348146 0.995513 0.440987
144 2 0.364953 0.767523 0.426866
942 1 0.257495 0.851274 0.452551
1189 5 0.148453 0.698251 0.518767
549 1 0.0551937 0.660931 0.529292
1147 5 0.0835458 0.592472 0.511184
665 2 0.00905451 0.705312 0.527565
657 1 0.173906 0.588309 0.519872
655 5 0.225109 0.669559 0.535187
120 1 0.235058 0.608482 0.562961
910 5 0.111 0.599983 0.546499
182 1 0.146911 0.550063 0.571297
39 1 0.0636405 0.516868 0.538612
616 1 0.040254 0.630956 0.574202
506 1 0.146922 0.649153 0.578278
1142 5 0.0397999 0.524566 0.570637
820 2 0.0842871 0.668314 0.583671
751 1 0.16353 0.733776 0.548915
145 1 0.0798228 0.729242 0.57356
1061 2 0.185374 0.596835 0.577327
544 1 0.218275 0.593985 0.596844
7 1 0.0140558 0.735451 0.508321
886 5 0.248765 0.720461 0.565551
342 5 0.156907 0.504751 0.533772
861 1 0.491199 0.500231 0.5924
952 2 0.435951 0.506254 0.580426
618 5 0.260887 0.523345 0.528246
307 2 0.369428 0.702199 0.525773
678 1 0.351797 0.66251 0.509136
568 5 0.351403 0.557252 0.518661
168 1 0.270022 0.597858 0.501725
978 2 0.45869 0.521382 0.504514
581 1 0.4125 0.673295 0.537932
902 1 0.410269 0.67431 0.571987
181 1 0.426648 0.571468 0.580406
1170 2 0.441314 0.70265 0.555668
541 5 0.416026 0.582574 0.547753
281 1 0.322902 0.55955 0.550186
79 1 0.316673 0.714604 0.536952
1 1 0.325998 0.598142 0.582163
143 1 0.259926 0.513535 0.573402
1028 3 0.390207 0.627036 0.586178
534 2 0.289165 0.570162 0.567687
268 1 0.447896 0.51423 0.526495
462 5 0.495294 0.607242 0.526998
474 1 0.15841 0.985774 0.513874
862 1 0.0150539 0.979504 0.536278
949 5 0.0135554 0.873747 0.525738
490 5 0.129989 0.856079 0.529319
1050 1 0.0824582 0.915958 0.511567
521 1 0.187429 0.859499 0.599087
576 2 0.10757 0.967875 0.50207
246 1 0.207419 0.88577 0.519201
702 1 0.0103742 0.753821 0.542633
1116 1 0.222181 0.959144 0.588381
1141 1 0.232367 0.98111 0.540997
262 1 0.166002 0.767082 0.58355
727 3 0.0755229 0.874097 0.565398
860 2 0.0644693 0.982987 0.549779
451 5 0.164819 0.978751 0.563927
405 1 0.0845426 0.899612 0.586221
765 1 0.114052 0.820132 0.559013
399 5 0.189953 0.889156 0.548727
376 1 0.0956417 0.926921 0.552211
482 1 0.01455 0.853505 0.557411
567 2 0.130056 0.76096 0.565313
221 2 0.294218 0.826091 0.58023
310 5 0.287996 0.910089 0.547114
434 1 0.257666 0.811044 0.500994
234 3 0.360646 0.987508 0.590854
592 1 0.365691 0.837838 0.538582
283 1 0.401277 0.751641 0.516049
1023 1 0.286463 0.877132 0.593676
841 5 0.265418 0.792516 0.534077
816 1 0.255467 0.834674 0.56311
1115 1 0.286067 0.770218 0.590451
1113 1 0.490276 0.810279 0.523315
1011 2 0.255127 0.875895 0.505304
1184 1 0.311776 0.887171 0.515343
495 1 0.401687 0.933888 0.529609
1093 2 0.371768 0.881484 0.521924
41 1 0.261227 0.9839 0.508404
511 1 0.411194 0.855778 0.507548
83 2 0.442075 0.798965 0.509065
368 2 0.397267 0.821477 0.557124
414 1 0.461969 0.974696 0.557489
719 3 0.464106 0.961916 0.535112
1095 1 0.456347 0.780475 0.591055
315 1 0.424941 0.764411 0.553887
484 1 0.438632 0.870602 0.559901
450 2 0.435407 0.929665 0.569885
360 1 0.458356 0.915983 0.589259
731 1 0.354495 0.826126 0.573254
905 1 0.371963 0.941968 0.573705
913 5 0.121991 0.674573 0.677141
68 1 0.224305 0.56544 0.62982
852 2 0.240124 0.696978 0.663533
329 1 0.217448 0.644377 0.654597
950 2 0.186131 0.59559 0.644525
1166 1 0.216067 0.708949 0.683064
627 1 0.0543564 0.594154 0.667467
819 1 0.0820161 0.653276 0.6048
609 2 0.0874327 0.609408 0.620568
704 1 0.168546 0.549642 0.658607
891 1 0.106861 0.553281 0.611219
455 1 0.135145 0.621868 0.634744
955 1 0.0332166 0.608553 0.632287
393 5 0.11667 0.558885 0.687531
906 2 0.0163672 0.577864 0.650994
1104 1 0.0254757 0.515798 0.64494
459 1 0.0341146 0.726807 0.673337
440 5 0.222563 0.695213 0.601749
17 2 0.496363 0.748149 0.603494
483 1 0.469316 0.549412 0.623678
1008 1 0.415469 0.735371 0.654647
1191 1 0.477923 0.746816 0.624269
1074 2 0.429759 0.556054 0.64035
106 1 0.468949 0.578324 0.656025
119 1 0.385844 0.654457 0.607318
125 1 0.30427 0.69362 0.665846
1125 2 0.260137 0.576354 0.611786
186 2 0.348924 0.729308 0.655253
923 1 0.290021 0.631369 0.617317
733 1 0.300757 0.52633 0.608794
927 1 0.342983 0.704302 0.634983
363 1 0.379566 0.596276 0.634259
129 2 0.348674 0.645825 0.624527
1180 5 0.372473 0.748386 0.603074
710 1 0.227798 0.750968 0.651385
1020 1 0.0476169 0.75345 0.637497
937 3 0.241396 0.928729 0.644163
442 2 0.233311 0.904969 0.600409
1167 2 0.221106 0.799395 0.635969
588 1 0.194988 0.773087 0.617733
653 1 0.241184 0.92144 0.621661
80 1 0.182543 0.8515 0.639877
712 1 0.102159 0.796185 0.608645
1067 2 0.162227 0.801174 0.60224
502 2 0.0162959 0.871001 0.64707
802 2 0.0436548 0.788661 0.618979
244 3 0.135289 0.905763 0.640288
324 1 0.1779 0.955248 0.649255
1124 2 0.0694725 0.936252 0.603332
1003 1 0.0754949 0.890401 0.652746
60 1 0.101078 0.92164 0.621264
345 1 0.0214735 0.84742 0.626684
104 5 0.155573 0.852111 0.674
1046 1 0.00266927 0.93566 0.605079
1065 2 0.00919973 0.755367 0.656908
425 1 0.00512791 0.819476 0.659044
908 1 0.346049 0.903535 0.63997
99 2 0.495888 0.932183 0.606177
132 1 0.335831 0.791198 0.660123
867 5 0.381506 0.861521 0.602793
931 1 0.289728 0.995062 0.641304
1123 1 0.346984 0.971371 0.613282
205 5 0.326379 0.870083 0.682269
177 3 0.341558 0.834158 0.641686
217 1 0.280343 0.818616 0.630671
960 1 0.262173 0.900122 0.663718
1110 2 0.34627 0.964485 0.634821
1014 1 0.397317 0.994981 0.644105
1106 1 0.399525 0.809758 0.631767
338 1 0.48652 0.814151 0.651254
838 1 0.465064 0.957622 0.623252
491 2 0.447794 0.774497 0.640993
437 5 0.296124 0.707272 0.701427
285 1 0.709922 0.146444 0.393179
725 1 0.645231 0.0706252 0.369573
464 1 0.6943 0.123105 0.341938
1178 2 0.715138 0.194237 0.380232
1092 2 0.69208 0.0685489 0.354507
810 1 0.749437 0.0712059 0.364668
1016 5 0.582878 0.14022 0.367068
321 1 0.543884 0.0426779 0.371282
934 1 0.520843 0.233344 0.366848
1148 2 0.60114 0.0339463 0.380335
517 5 0.701547 0.0151843 0.392877
328 2 0.530865 0.218138 0.345408
688 1 0.697743 0.232123 0.337762
845 1 0.520803 0.00907423 0.335459
984 1 0.659104 0.206292 0.368284
121 5 0.574468 0.0892088 0.324064
267 1 0.59188 0.236314 0.341915
903 1 0.683812 0.0126381 0.344632
385 5 0.749677 0.0141205 0.31923
757 1 0.522317 0.155464 0.343117
585 3 0.741011 0.178569 0.342607
16 2 0.650858 0.245593 0.350248
822 5 0.613394 0.2482 0.395426
1096 1 0.720531 0.248808 0.391859
1175 1 0.581351 0.155859 0.398809
1026 1 0.758625 0.191627 0.364173
1073 2 0.809034 0.0642243 0.372052
818 2 0.844427 0.108354 0.337236
330 1 0.90041 0.138755 0.331807
540 5 0.874342 0.16132 0.380941
957 1 0.938389 0.0464155 0.395883
288 2 0.927971 0.196779 0.335453
1068 1 0.798657 0.155023 0.334373
990 1 0.845879 0.0972945 0.35848
107 1 0.835262 0.0548575 0.326725
389 1 0.95743 0.22652 0.318841
1163 1 0.818935 0.0823425 0.392831
159 2 0.993079 0.014211 0.392843
261 1 0.891873 0.236367 0.346677
835 1 0.961931 0.00689687 0.34586
921 5 0.932972 0.0323036 0.319538
614 1 0.986586 0.192422 0.345939
1032 1 0.823275 0.00114395 0.371054
799 2 0.744488 0.30783 0.39531
807 5 0.570925 0.421967 0.324122
690 3 0.501696 0.389545 0.357475
555 1 0.744261 0.385967 0.344498
497 5 0.718991 0.450965 0.323759
428 1 0.634976 0.488648 0.331909
940 1 0.581259 0.332538 0.385273
729 1 0.646471 0.308869 0.357403
396 1 0.739678 0.463392 0.383929
254 2 0.676621 0.465182 0.381805
77 1 0.650493 0.404245 0.377497
774 1 0.57048 0.390253 0.35613
1192 2 0.613702 0.356604 0.367993
676 1 0.740801 0.347295 0.378733
341 1 0.923172 0.426601 0.380144
1045 1 0.809814 0.305386 0.35719
477 5 0.985793 0.390521 0.333181
732 2 0.80325 0.454363 0.383928
692 2 0.773681 0.358604 0.360674
745 3 0.887454 0.402953 0.36207
1010 1 0.87648 0.265623 0.380699
436 1 0.908724 0.443104 0.344924
299 1 0.908242 0.335844 0.358572
1200 1 0.819734 0.404376 0.36893
947 2 0.871212 0.284583 0.360405
686 2 0.967239 0.47314 0.383442
1019 5 0.527947 0.1245 0.468256
1030 2 0.531728 0.242781 0.485743
146 1 0.570116 0.191911 0.481177
691 1 0.638928 0.116264 0.49031
613 2 0.634263 0.17299 0.479666
179 1 0.676337 0.212425 0.489606
469 5 0.743993 0.0297942 0.475201
783 1 0.663073 0.0530119 0.455451
2 1 0.613689 0.110992 0.430611
454 1 0.648868 0.157746 0.458849
401 5 0.737198 0.188243 0.456165
128 5 0.600046 0.00745681 0.472463
489 1 0.717063 0.120214 0.436208
864 2 0.660775 0.107203 0.445202
795 5 0.66162 0.176862 0.416405
3 2 0.58026 0.105787 0.412501
30 1 0.517716 0.0966574 0.417867
115 1 0.508411 0.241641 0.404949
770 1 0.525752 0.00239081 0.454608
1133 1 0.552849 0.24348 0.436694
687 1 0.504539 0.0752493 0.493578
840 1 0.602381 0.0549308 0.400948
478 1 0.791498 0.124558 0.473011
682 5 0.948364 0.119979 0.494676
253 5 0.87368 0.0443336 0.467233
622 2 0.842586 0.164439 0.474349
493 5 0.897113 0.121778 0.409303
116 1 0.862336 0.164356 0.495032
199 5 0.851556 0.0192656 0.41206
683 1 0.978279 0.239841 0.456075
782 1 0.823502 0.223887 0.468943
582 5 0.920547 0.185357 0.436133
1179 5 0.981664 0.119613 0.450587
522 5 0.775179 0.166663 0.413902
214 1 0.865251 0.206409 0.409326
829 1 0.886678 0.138573 0.461547
95 5 0.80669 0.0870692 0.441274
394 1 0.981544 0.0372214 0.475059
746 1 0.991651 0.146604 0.419085
649 1 0.64861 0.484376 0.400327
218 5 0.588681 0.362912 0.4689
1052 5 0.681559 0.30978 0.482014
1168 5 0.704235 0.43365 0.489673
546 2 0.600993 0.28193 0.442464
721 5 0.621824 0.382272 0.41062
593 3 0.653379 0.482053 0.456571
433 1 0.718143 0.331765 0.448013
312 1 0.653713 0.268258 0.430525
1004 2 0.745519 0.387217 0.454848
44 2 0.713224 0.293662 0.430451
57 1 0.614776 0.275748 0.462711
37 1 0.716322 0.330798 0.412789
669 1 0.694564 0.426819 0.457656
767 1 0.591971 0.473666 0.466927
586 1 0.583464 0.342497 0.436903
536 1 0.522271 0.46419 0.43923
863 2 0.530065 0.472815 0.460022
976 5 0.513208 0.363823 0.411787
466 1 0.505292 0.281445 0.471174
693 5 0.769533 0.253677 0.492397
672 1 0.760839 0.251217 0.43083
591 5 0.966293 0.376293 0.410751
1091 1 0.767561 0.37709 0.475111
761 3 0.835162 0.378478 0.481386
476 5 0.889841 0.276039 0.481806
357 2 0.885804 0.486346 0.495082
263 1 0.883057 0.354594 0.466514
1138 1 0.94328 0.456483 0.495251
735 1 0.844555 0.445265 0.485367
636 1 0.868093 0.472049 0.432598
674 1 0.813732 0.433372 0.404667
64 2 0.808709 0.451573 0.426285
131 1 0.903344 0.306952 0.413599
1021 5 0.843262 0.285001 0.445804
1190 5 0.902835 0.378281 0.433604
1035 5 0.921299 0.456215 0.460162
103 1 0.791804 0.404346 0.440447
392 1 0.99708 0.410717 0.442999
604 5 0.984636 0.282888 0.427995
190 1 0.765846 0.497438 0.430494
1054 5 0.970046 0.33283 0.461349
1059 1 0.987243 0.471438 0.403962
297 1 0.806351 0.29769 0.401276
467 2 0.865419 0.267091 0.40248
713 1 0.651438 0.0171782 0.502199
487 5 0.513041 0.0594404 0.55296
1044 1 0.584052 0.0122112 0.570606
250 2 0.539448 0.1793 0.596893
1121 2 0.56684 0.142621 0.528431
164 1 0.596494 0.0893799 0.520754
58 1 0.696888 0.1036 0.519078
901 2 0.648688 0.080623 0.507719
304 1 0.599357 0.195331 0.52151
1041 1 0.570598 0.14325 0.550041
936 1 0.724969 0.0463171 0.587155
1139 1 0.653901 0.10705 0.564635
53 1 0.691426 0.141663 0.593846
626 2 0.616576 0.159567 0.565075
210 5 0.744734 0.0631378 0.540202
339 2 0.701553 0.0981423 0.577926
43 5 0.703666 0.195393 0.522538
369 1 0.649206 0.212813 0.560567
971 1 0.686627 0.244685 0.58979
830 1 0.58968 0.162581 0.584451
350 2 0.560536 0.0310859 0.590217
1195 1 0.511385 0.0712408 0.587562
1109 1 0.504421 0.152011 0.523527
736 5 0.818133 0.0406324 0.595334
200 2 0.990389 0.144729 0.546077
1154 5 0.781407 0.118742 0.503372
515 5 0.882828 0.0949553 0.524833
408 1 0.968982 0.119668 0.527546
384 5 0.9059 0.215583 0.521694
224 1 0.807102 0.0389891 0.518753
1198 1 0.825619 0.188812 0.551757
157 1 0.910352 0.0493938 0.582935
1005 1 0.850104 0.0905718 0.560527
332 1 0.959517 0.124402 0.563786
1187 2 0.886602 0.0372451 0.563279
809 2 0.977212 0.125592 0.584649
118 2 0.815332 0.14318 0.566396
147 1 0.921513 0.0176858 0.545988
570 1 0.92983 0.15421 0.596564
273 1 0.823524 0.17177 0.585826
228 1 0.753511 0.122563 0.566544
794 1 0.949782 0.00808447 0.509923
677 1 0.976661 0.208968 0.544581
801 1 0.565542 0.483188 0.550042
73 2 0.589167 0.261938 0.520516
152 1 0.629044 0.357065 0.593993
895 1 0.53468 0.397765 0.501018
427 2 0.593429 0.40687 0.510644
509 1 0.583626 0.388861 0.530908
878 1 0.562049 0.275348 0.50172
924 1 0.599104 0.473474 0.510452
235 1 0.6445 0.291519 0.524393
279 1 0.640558 0.373763 0.5013
948 3 0.683678 0.347727 0.520287
431 2 0.681619 0.472337 0.581791
379 2 0.715687 0.47255 0.529814
720 1 0.740813 0.251777 0.557652
890 1 0.723133 0.430191 0.590105
831 2 0.618548 0.370914 0.572843
98 1 0.723175 0.330522 0.578327
203 2 0.685076 0.266342 0.567447
716 1 0.6957 0.410645 0.52959
391 1 0.6454 0.430739 0.569838
351 1 0.638558 0.315896 0.563374
1119 3 0.543294 0.416601 0.546763
1056 1 0.541662 0.268233 0.535499
850 1 0.555078 0.377424 0.566041
1081 5 0.549913 0.278542 0.569454
612 1 0.745161 0.328771 0.514065
899 1 0.725147 0.498586 0.51091
530 3 0.936152 0.47481 0.55698
737 2 0.760948 0.379807 0.582847
430 5 0.785979 0.270668 0.592438
266 1 0.971514 0.468313 0.537486
189 1 0.770996 0.469329 0.541078
529 1 0.82335 0.383896 0.531855
869 3 0.985731 0.274454 0.544262
884 1 0.824216 0.280755 0.530591
843 5 0.916535 0.377576 0.523539
488 1 0.974757 0.297454 0.521496
825 2 0.808415 0.332913 0.519459
133 1 0.842995 0.34096 0.501032
18 1 0.793772 0.398744 0.566012
982 3 0.806504 0.254814 0.55117
1102 1 0.873801 0.451986 0.5527
769 1 0.841842 0.289501 0.56697
291 1 0.897016 0.360887 0.585348
1158 1 0.920171 0.260394 0.588867
623 1 0.983295 0.44985 0.573424
1100 2 0.816735 0.429638 0.547905
946 1 0.940969 0.305726 0.557386
742 2 0.90003 0.303404 0.573884
56 1 0.804241 0.360646 0.598012
300 2 0.570867 0.180761 0.649419
1043 1 0.632965 0.18583 0.654176
788 1 0.738128 0.168745 0.650251
354 2 0.694344 0.198098 0.604337
441 2 0.627511 0.0251989 0.621096
748 1 0.664391 0.196842 0.623103
875 1 0.606824 0.0504485 0.603371
1152 1 0.657292 0.0601638 0.635167
122 5 0.727917 0.0701243 0.664213
656 2 0.688642 0.202494 0.643624
539 1 0.532904 0.130969 0.647697
1025 1 0.527406 0.14363 0.614603
240 1 0.554028 0.242035 0.604364
601 1 0.552637 0.23246 0.638849
448 5 0.743454 0.0646622 0.621935
615 1 0.932157 0.00984079 0.642677
932 1 0.829918 0.0429682 0.661405
194 5 0.924 0.0975793 0.660987
33 5 0.826427 0.147457 0.647709
383 1 0.949308 0.189486 0.653286
93 1 0.966322 0.22131 0.620634
666 1 0.862803 0.214991 0.613506
975 5 0.910974 0.0748061 0.615364
335 1 0.821576 0.115571 0.614907
292 2 0.816507 0.173199 0.60684
1151 1 0.758488 0.200792 0.611182
1140 2 0.989425 0.184058 0.63645
507 2 0.923027 0.214685 0.604334
162 1 0.986964 0.124366 0.628599
630 3 0.813233 0.000288342 0.644747
355 1 0.707321 0.376823 0.648405
223 1 0.647645 0.412568 0.622656
933 2 0.649409 0.347659 0.613786
642 2 0.696387 0.431119 0.637586
527 1 0.710469 0.331096 0.61849
457 2 0.731412 0.322502 0.639172
771 1 0.705327 0.267074 0.644167
1130 2 0.586638 0.437834 0.625273
641 1 0.579916 0.426298 0.645478
463 2 0.553304 0.277461 0.62338
1009 1 0.610154 0.30835 0.624731
193 1 0.543198 0.407167 0.612491
471 1 0.685034 0.485449 0.64859
524 1 0.506092 0.319246 0.623059
600 1 0.578735 0.499798 0.62111
337 5 0.98215 0.434767 0.640465
1182 5 0.913563 0.252147 0.672408
1080 2 0.864694 0.375606 0.603478
972 1 0.854032 0.438762 0.607999
1040 1 0.888992 0.332476 0.658006
963 1 0.842846 0.419386 0.640635
569 1 0.795459 0.329728 0.639345
65 1 0.884744 0.347926 0.621332
1132 2 0.817358 0.457179 0.625542
887 2 0.85574 0.355235 0.6416
675 1 0.750785 0.443177 0.627358
498 1 0.985423 0.414842 0.607301
239 1 0.64096 0.587482 0.34625
411 2 0.732004 0.641835 0.374989
926 5 0.501794 0.683459 0.381935