ITEM: TIMESTEP
100
ITEM: NUMBER OF ATOMS
1200
ITEM: BOX BOUNDS pp pp pp
-7.6266250050336382e-02 2.5098596345622489e+01
-7.6266250050336382e-02 2.5098596345622489e+01
-2.5251128845723162e+01 5.0273458941295317e+01
ITEM: ATOMS id type xs ys zs
1070 2 0.185744 0.0334708 0.396501
1149 3 0.232826 0.100411 0.352136
419 1 0.238046 0.139209 0.371342
108 1 0.257247 0.0325769 0.349187
804 1 0.237977 0.0264356 0.38483
1146 5 0.00470511 0.203437 0.392992
96 1 0.0366083 0.0166679 0.391458
1076 1 0.160068 0.0929914 0.349764
1193 1 0.0521359 0.0847573 0.365524
580 5 0.156365 0.152928 0.382895
269 2 0.042234 0.213099 0.354391
638 5 0.183134 0.197606 0.343727
390 2 0.0698263 0.0704202 0.384951
645 3 0.0710543 0.0529357 0.34723
967 1 0.081335 0.202243 0.371472
389 1 0.0318671 0.173017 0.339335
26 5 0.251115 0.462542 0.329696
542 1 0.133176 0.0564317 0.386051
935 2 0.409582 0.248995 0.338903
787 1 0.405842 0.203699 0.353798
121 5 0.456953 0.120069 0.347376
314 1 0.451369 0.172082 0.385322
590 2 0.473153 0.2345 0.381142
577 2 0.103394 0.472786 0.353265
460 1 0.338147 0.456775 0.348819
559 1 0.432357 0.03563 0.354405
1053 1 0.284198 0.366599 0.339205
973 5 0.307848 0.197982 0.362749
290 1 0.34453 0.179837 0.394912
468 2 0.395586 0.140702 0.392119
1174 1 0.270647 0.135172 0.335803
1037 1 0.37768 0.0910614 0.378999
432 5 0.244588 0.213026 0.389776
196 2 0.394507 0.0299518 0.371212
82 1 0.195723 0.294749 0.341254
346 2 0.231601 0.336701 0.350161
477 5 0.00482929 0.350767 0.336607
1059 1 0.0512627 0.420759 0.390732
40 5 0.127819 0.291591 0.372339
686 2 0.0199986 0.458842 0.376858
813 1 0.0511154 0.445642 0.358069
403 5 0.125957 0.412237 0.377942
188 5 0.191357 0.359736 0.396831
1071 1 0.200776 0.380637 0.362539
834 1 0.183888 0.479453 0.388064
418 1 0.0429794 0.277545 0.350359
624 3 0.49836 0.0127855 0.356023
703 2 0.398361 0.474083 0.354469
241 1 0.427421 0.28065 0.377637
929 1 0.46882 0.26026 0.334868
373 1 0.402901 0.464161 0.376402
1171 1 0.450676 0.449173 0.345439
409 1 0.46912 0.36942 0.368769
1159 2 0.420045 0.344973 0.378545
412 2 0.329574 0.334338 0.350737
628 1 0.364355 0.291815 0.340249
660 1 0.285006 0.311411 0.363219
151 1 0.368761 0.360771 0.365766
893 5 0.316251 0.268921 0.391337
565 5 0.301935 0.420996 0.376851
907 1 0.420717 0.00262638 0.389309
635 5 0.329323 0.0194859 0.330958
915 1 0.138823 0.478687 0.332436
690 3 0.499565 0.398241 0.350797
296 1 0.0597869 0.00766396 0.501031
397 2 0.0259936 0.226564 0.471825
885 5 0.17666 0.19693 0.476855
1185 5 0.0827766 0.0926025 0.487455
88 1 0.0163089 0.166589 0.479259
28 1 0.20853 0.114498 0.491487
62 5 0.239663 0.0229479 0.439255
953 5 0.0977668 0.0162632 0.427712
20 1 0.150974 0.0102683 0.454951
1060 5 0.168253 0.215138 0.441253
137 5 0.165966 0.100113 0.440607
377 2 0.0480712 0.145402 0.420592
537 1 0.20022 0.0742132 0.41247
15 5 0.0623509 0.0437014 0.460652
353 1 0.0881259 0.195764 0.421279
1017 1 0.0841098 0.241246 0.464623
1024 1 0.0616728 0.103633 0.436807
472 1 0.264718 0.0293317 0.47787
75 1 0.312615 0.111866 0.493048
375 2 0.260501 0.0922765 0.48066
206 1 0.257641 0.232118 0.494931
407 1 0.483428 0.218546 0.495326
479 1 0.45781 0.00220023 0.424548
247 5 0.400996 0.100267 0.470422
378 2 0.460993 0.0236148 0.444827
516 1 0.453991 0.0887729 0.442318
406 1 0.478038 0.18252 0.427502
91 1 0.41539 0.114111 0.410582
557 2 0.488971 0.244365 0.422783
920 2 0.464965 0.118112 0.423524
211 5 0.330611 0.0308873 0.402648
858 1 0.262604 0.18431 0.433743
443 2 0.297364 0.136057 0.442617
14 1 0.311947 0.083564 0.431291
322 5 0.356296 0.228004 0.425635
968 1 0.262439 0.118831 0.460424
309 5 0.272741 0.115506 0.400239
72 1 0.34975 0.16171 0.451048
32 5 0.304271 0.227192 0.469271
364 1 0.000999062 0.369218 0.494936
779 5 0.15689 0.431513 0.46923
871 3 0.00480748 0.438061 0.490527
242 1 0.00766575 0.265725 0.488412
754 1 0.0343559 0.459816 0.471709
78 5 0.133537 0.306325 0.479557
34 1 0.252295 0.419791 0.480563
1099 1 0.386404 0.362172 0.566818
663 1 0.103842 0.365095 0.456016
208 1 0.218242 0.493173 0.443548
1079 5 0.245575 0.435806 0.414198
1054 5 0.0026353 0.341845 0.457313
435 1 0.194283 0.306354 0.452143
392 1 0.00679183 0.445334 0.436741
591 5 0.0345695 0.369206 0.418302
827 1 0.108538 0.293767 0.43223
689 2 0.143537 0.336175 0.442515
722 1 0.104616 0.479645 0.443836
1128 2 0.0433446 0.478977 0.451177
249 2 0.100967 0.256945 0.414486
265 1 0.165959 0.375379 0.426898
741 5 0.117459 0.45175 0.411633
1173 1 0.0500085 0.27973 0.402714
533 1 0.158271 0.263617 0.404633
1078 1 0.378024 0.402327 0.468058
564 2 0.377276 0.359347 0.484617
139 5 0.245552 0.328853 0.488786
547 1 0.325294 0.480949 0.497298
561 1 0.359137 0.302003 0.478068
256 2 0.270584 0.478886 0.486756
447 2 0.489547 0.404777 0.491613
4 1 0.439686 0.361484 0.492958
204 1 0.465448 0.459614 0.501325
851 1 0.409602 0.492261 0.449422
608 1 0.473257 0.489057 0.40451
812 2 0.388832 0.330278 0.585092
115 1 0.490846 0.254738 0.401525
696 5 0.437586 0.26409 0.465667
996 1 0.447576 0.283709 0.432241
102 5 0.48887 0.363893 0.444807
382 5 0.240115 0.274142 0.423685
1039 5 0.25798 0.373053 0.452412
109 1 0.330178 0.317678 0.419628
694 1 0.317721 0.455823 0.444387
494 2 0.371275 0.36989 0.414731
308 1 0.396338 0.398863 0.432575
633 1 0.331305 0.411117 0.404686
410 2 0.378668 0.436856 0.448812
550 1 0.127442 0.107812 0.515881
574 5 0.0526467 0.168804 0.508358
1155 1 0.127887 0.223162 0.504416
520 2 0.188892 0.115828 0.512448
811 1 0.216893 0.0631212 0.521311
643 1 0.218142 0.167172 0.519992
785 1 0.101621 0.0762624 0.578527
857 1 0.198306 0.0478533 0.574459
69 2 0.213564 0.189474 0.598709
114 2 0.241308 0.0204138 0.587852
760 1 0.0557604 0.116174 0.400329
1089 1 0.00605453 0.0745842 0.590234
1006 1 0.0445324 0.136666 0.539651
738 3 0.0789296 0.22607 0.591335
647 2 0.158456 0.099622 0.572888
192 1 0.15171 0.116769 0.552824
632 1 0.0332057 0.173881 0.585724
897 2 0.0526618 0.0354313 0.583381
826 3 0.101538 0.0985581 0.537206
680 1 0.0893835 0.0311525 0.542071
548 1 0.182513 0.140778 0.588856
803 5 0.197854 0.200449 0.5475
219 1 0.121454 0.236152 0.571747
23 1 0.350222 0.0834058 0.52553
298 2 0.262943 0.212301 0.514952
101 1 0.319998 0.182611 0.516705
854 2 0.348901 0.126557 0.509747
1118 1 0.277544 0.428379 0.59868
470 2 0.459718 0.180887 0.511002
413 1 0.436243 0.222025 0.525737
684 1 0.478274 0.0199072 0.522691
833 1 0.410044 0.14443 0.505364
930 2 0.489024 0.0221529 0.500893
81 1 0.407892 0.0256218 0.58716
961 2 0.448609 0.0750273 0.586287
900 3 0.414343 0.204312 0.58984
945 5 0.487317 0.213226 0.554514
42 1 0.482889 0.197923 0.589741
1057 1 0.30945 0.258847 0.559561
1161 1 0.448723 0.104469 0.566536
1066 5 0.39086 0.146032 0.547653
596 1 0.28347 0.15625 0.554884
1199 2 0.3078 0.198547 0.568511
10 1 0.265997 0.193621 0.585428
220 1 0.299402 0.0263648 0.578281
646 5 0.270416 0.0667415 0.547994
837 5 0.367375 0.0225469 0.550741
438 1 0.363364 0.183485 0.576722
1001 2 0.127936 0.278212 0.516459
92 1 0.0720307 0.30714 0.511943
916 1 0.0429031 0.463297 0.507902
1194 5 0.321261 0.426947 0.561804
342 5 0.135046 0.482181 0.52063
605 1 0.172714 0.321735 0.510497
424 2 0.0113264 0.310567 0.503763
798 5 0.217613 0.407576 0.51339
558 5 0.240705 0.336207 0.589583
317 3 0.228174 0.462301 0.586478
611 1 0.239127 0.336548 0.550793
215 1 0.207926 0.412509 0.571193
367 5 0.0666868 0.392163 0.531929
105 2 0.285107 0.296659 0.544128
366 1 0.0496863 0.300401 0.551981
130 5 0.0290511 0.361371 0.577308
759 1 0.142682 0.337219 0.563529
231 2 0.110456 0.282831 0.557457
153 1 0.13485 0.269108 0.537954
786 2 0.0138585 0.468197 0.592321
518 1 0.0562325 0.289435 0.59297
127 1 0.158653 0.408192 0.539498
352 1 0.0779794 0.472609 0.595744
174 2 0.190049 0.375263 0.555276
439 5 0.119431 0.467262 0.561411
100 2 0.341989 0.391383 0.523482
922 5 0.366624 0.26499 0.508584
977 1 0.259523 0.25824 0.529553
535 1 0.291762 0.43024 0.530103
966 1 0.394378 0.41842 0.530999
1013 1 0.341397 0.374607 0.502447
372 1 0.332944 0.321933 0.594524
227 1 0.420156 0.273434 0.580403
952 2 0.427634 0.494765 0.58161
652 5 0.410722 0.290575 0.546568
348 5 0.479264 0.360059 0.57312
784 2 0.438541 0.447559 0.542946
861 1 0.478442 0.466858 0.589938
706 1 0.419372 0.47459 0.561207
303 1 0.490517 0.409372 0.547662
340 1 0.374679 0.476112 0.592377
1105 1 0.330646 0.33251 0.534248
395 5 0.346925 0.00230155 0.510498
998 1 0.416112 0.355123 0.40031
551 1 0.197661 0.251715 0.599763
104 5 0.208913 0.00443283 0.670927
123 1 0.231557 0.214023 0.647717
610 1 0.228633 0.160251 0.618362
1094 2 0.220182 0.0858947 0.623906
162 1 0.0232854 0.141153 0.633322
415 1 0.428667 0.116885 0.601248
142 1 0.142775 0.0838476 0.665399
1131 5 0.0929342 0.000424268 0.644724
1085 2 0.122176 0.495325 0.608494
711 5 0.0759469 0.109375 0.607356
700 1 0.120403 0.170208 0.646442
359 1 0.158232 0.0867338 0.628509
1126 1 0.108992 0.193942 0.611666
47 2 0.107252 0.219672 0.632732
94 1 0.0481156 0.238741 0.6355
230 2 0.12574 0.109336 0.647948
1072 1 0.438238 0.158625 0.634502
753 1 0.471991 0.054699 0.629924
999 1 0.401365 0.254968 0.644216
31 5 0.307258 0.245378 0.60531
344 1 0.426054 0.360927 0.601338
209 1 0.39376 0.220257 0.610775
1014 1 0.384265 0.00927153 0.638613
205 5 0.395976 0.0726222 0.660169
255 1 0.324648 0.178302 0.634769
986 1 0.231071 0.0546279 0.60684
991 5 0.335706 0.0997963 0.600539
365 1 0.256621 0.101154 0.641065
111 2 0.389874 0.2039 0.631747
651 2 0.263796 0.164055 0.639
458 1 0.151343 0.263999 0.63774
51 1 0.201323 0.457443 0.645537
343 1 0.260473 0.297687 0.632411
1114 2 0.211696 0.271822 0.642324
1145 1 0.114832 0.410361 0.660852
1183 5 0.0715311 0.322627 0.660159
870 1 0.152285 0.374328 0.632718
1117 5 0.136345 0.332357 0.606812
556 1 0.18057 0.480411 0.601957
1042 2 0.486133 0.117715 0.630349
909 5 0.0456857 0.414093 0.643902
631 1 0.107769 0.469032 0.628368
1069 2 0.145035 0.433163 0.643126
1150 1 0.426927 0.385599 0.63422
524 1 0.496204 0.304257 0.619194
525 2 0.464177 0.362393 0.619101
50 5 0.286228 0.483827 0.655651
54 1 0.414768 0.472807 0.651548
607 2 0.321855 0.468344 0.605558
639 5 0.231214 0.39077 0.624797
956 1 0.345543 0.438726 0.623439
1000 1 0.333099 0.405433 0.655091
202 5 0.34463 0.335845 0.633809
71 2 0.377723 0.42499 0.642096
370 1 0.11622 0.5314 0.363105
572 2 0.199741 0.534943 0.397821
388 1 0.240893 0.741783 0.388289
1136 1 0.234175 0.732564 0.34925
232 1 0.00838656 0.608719 0.363627
429 5 0.247019 0.640379 0.36853
739 5 0.170959 0.675272 0.390673
1101 1 0.189676 0.575485 0.381997
763 1 0.114749 0.747215 0.348745
1036 1 0.0295468 0.519906 0.38552
708 1 0.154899 0.647782 0.357372
634 2 0.496316 0.899761 0.377862
85 1 0.086115 0.617765 0.386018
839 2 0.16034 0.706033 0.351506
212 2 0.0301834 0.583616 0.382131
1144 3 0.133272 0.59472 0.370198
422 5 0.0392239 0.70329 0.376114
919 1 0.400359 0.556389 0.392068
598 1 0.409265 0.660778 0.385169
1033 1 0.401115 0.636901 0.342121
697 5 0.356723 0.902911 0.365221
9 1 0.483832 0.5279 0.372541
918 1 0.402785 0.537305 0.34807
917 2 0.441211 0.506394 0.387292
715 2 0.439278 0.586789 0.341909
766 5 0.481279 0.690168 0.360599
176 5 0.34466 0.686601 0.359938
579 1 0.329524 0.606453 0.372263
124 2 0.367833 0.613421 0.388926
668 5 0.278088 0.51583 0.363206
807 5 0.319228 0.601253 0.332223
1122 1 0.238081 0.934412 0.364941
1088 2 0.197969 0.886241 0.363788
286 1 0.210791 0.826206 0.365373
797 1 0.193995 0.888239 0.392744
793 3 0.272265 0.996156 0.367671
89 1 0.144402 0.897754 0.351245
921 5 0.104232 0.845776 0.327916
84 3 0.249982 0.769768 0.36885
762 1 0.101433 0.989536 0.349263
416 1 0.0467393 0.892332 0.353273
6 5 0.0945501 0.813274 0.375943
519 2 0.0937112 0.931651 0.357924
815 2 0.141093 0.92183 0.39849
532 1 0.00387496 0.794082 0.380444
747 1 0.10733 0.932728 0.380037
734 5 0.4155 0.76549 0.385326
500 5 0.466569 0.816457 0.351569
1186 1 0.479714 0.946182 0.364431
758 1 0.445071 0.857714 0.380235
465 1 0.342173 0.998522 0.366808
679 1 0.294532 0.927311 0.397902
52 5 0.362629 0.858282 0.393917
404 1 0.313312 0.780053 0.360885
750 5 0.298986 0.766569 0.330438
1007 1 0.192212 0.601257 0.480449
12 5 0.0830621 0.75181 0.482466
1157 1 0.103917 0.654215 0.471672
844 2 0.245139 0.746965 0.488152
531 1 0.229528 0.737177 0.425652
718 1 0.243266 0.638936 0.42421
620 2 0.201355 0.681673 0.432307
135 1 0.193093 0.671921 0.453331
398 5 0.00688423 0.64976 0.464873
1058 1 0.145835 0.678276 0.422304
670 1 0.147259 0.579023 0.450434
444 1 0.16249 0.541221 0.4153
445 3 0.15857 0.523557 0.438419
994 5 0.0649322 0.594616 0.429451
1135 1 0.101822 0.741598 0.400548
446 1 0.0389711 0.682144 0.423217
1137 2 0.0916983 0.71646 0.420024
1169 2 0.157578 0.627071 0.46427
1083 1 0.332595 0.63853 0.478177
213 5 0.365998 0.548281 0.48313
1002 1 0.282969 0.5175 0.469512
1018 2 0.305472 0.645109 0.497932
349 1 0.260059 0.692007 0.497489
1197 2 0.455751 0.744867 0.467235
749 1 0.401258 0.707972 0.46634
554 5 0.435204 0.654989 0.494305
238 1 0.483053 0.563244 0.432318
501 5 0.44914 0.630104 0.413935
499 1 0.423033 0.710442 0.427666
528 1 0.413344 0.602912 0.459464
1049 3 0.452723 0.54756 0.45191
1031 1 0.333601 0.652563 0.443027
789 1 0.304364 0.555965 0.436392
562 1 0.33753 0.736598 0.408667
575 1 0.261404 0.530825 0.402031
985 5 0.360727 0.501672 0.411476
847 1 0.338887 0.619013 0.408734
911 2 0.303982 0.616336 0.427949
740 2 0.280871 0.508095 0.448074
1038 2 0.369812 0.652425 0.460405
426 1 0.0598277 0.849599 0.474373
1087 1 0.122316 0.949347 0.48236
11 1 0.180525 0.756976 0.486017
167 5 0.142838 0.854749 0.492117
70 2 0.000611354 0.877861 0.4772
374 1 0.24793 0.894835 0.485004
853 5 0.164635 0.814004 0.419656
705 2 0.23676 0.899205 0.447589
183 2 0.250769 0.888965 0.405192
603 1 0.232723 0.9083 0.425289
475 5 0.0221808 0.906045 0.42777
823 5 0.178256 0.782145 0.456109
180 5 0.0883979 0.854387 0.442685
35 1 0.102053 0.763753 0.43431
594 1 0.175428 0.902777 0.454954
988 2 0.132467 0.949775 0.461105
993 5 0.0346345 0.826902 0.40832
892 1 0.075163 0.947136 0.451678
997 5 0.02082 0.778533 0.450764
334 1 0.109343 0.882571 0.41079
941 1 0.345699 0.954394 0.482611
764 1 0.346582 0.822875 0.472142
881 1 0.270732 0.751571 0.46854
1015 3 0.275018 0.961136 0.479518
434 1 0.264765 0.799225 0.498823
294 1 0.440106 0.90932 0.472762
293 1 0.458711 0.762508 0.488426
877 1 0.434927 0.998218 0.492014
874 2 0.407287 0.962818 0.475873
1111 1 0.0760143 0.996131 0.599423
140 1 0.403718 0.813203 0.418911
699 1 0.403042 0.918571 0.412916
958 3 0.406147 0.852878 0.464047
325 1 0.445288 0.799817 0.456504
277 1 0.480393 0.872712 0.431872
86 1 0.415473 0.999297 0.457832
898 3 0.448843 0.961024 0.404786
356 2 0.419249 0.872235 0.427193
1034 1 0.381645 0.877229 0.44408
226 1 0.271393 0.946248 0.455864
138 1 0.338525 0.771918 0.441806
1156 3 0.270999 0.761312 0.408913
513 2 0.307074 0.796444 0.457884
980 5 0.342562 0.967261 0.434053
386 1 0.275964 0.829223 0.409339
144 2 0.378436 0.754356 0.425039
942 1 0.261643 0.839871 0.450635
1189 5 0.156879 0.68025 0.509214
549 1 0.0687857 0.679882 0.522265
1147 5 0.080717 0.606044 0.501048
665 2 0.0218901 0.71944 0.526897
657 1 0.173107 0.587655 0.517773
1112 3 0.213605 0.571677 0.500227
618 5 0.249653 0.514977 0.532213
655 5 0.229365 0.643781 0.536362
120 1 0.236848 0.606691 0.564132
910 5 0.11519 0.607878 0.540683
182 1 0.153421 0.546718 0.569654
39 1 0.0623578 0.52494 0.536729
616 1 0.0374644 0.633667 0.570538
506 1 0.139637 0.643245 0.579324
1142 5 0.0537066 0.538013 0.568312
820 2 0.0801947 0.66534 0.582821
751 1 0.17277 0.724528 0.552054
145 1 0.0853619 0.72438 0.574202
1061 2 0.185269 0.595772 0.578187
307 2 0.370347 0.702779 0.527418
678 1 0.352553 0.66255 0.511136
568 5 0.343579 0.542655 0.520905
168 1 0.276865 0.590179 0.504556
462 5 0.498104 0.616819 0.527839
978 2 0.468328 0.5156 0.510773
283 1 0.409522 0.745698 0.517431
387 1 0.427705 0.562969 0.506927
581 1 0.408861 0.669835 0.541466
902 1 0.411783 0.668066 0.575647
181 1 0.436774 0.558205 0.582062
1170 2 0.438706 0.697412 0.558352
541 5 0.402649 0.572928 0.539878
281 1 0.317337 0.56694 0.548417
79 1 0.316856 0.722362 0.536565
1 1 0.332407 0.593873 0.581109
143 1 0.264183 0.510843 0.57388
1028 3 0.395505 0.611178 0.588979
534 2 0.287496 0.570697 0.56791
886 5 0.263877 0.711676 0.564242
490 5 0.107836 0.841679 0.531246
1050 1 0.0821143 0.909275 0.512738
474 1 0.155234 0.983051 0.514416
7 1 0.0141791 0.756 0.509211
576 2 0.102529 0.960688 0.502479
545 2 0.214288 0.997684 0.521423
246 1 0.201925 0.86306 0.516153
702 1 0.032222 0.762864 0.543012
841 5 0.239623 0.790135 0.535516
1116 1 0.226813 0.958917 0.590629
1141 1 0.230694 0.974425 0.540923
862 1 0.00380614 0.959817 0.536872
262 1 0.169917 0.766263 0.586421
727 3 0.083703 0.870226 0.566521
860 2 0.0557198 0.978129 0.548048
451 5 0.173835 0.957331 0.565264
405 1 0.092681 0.896791 0.586505
765 1 0.126271 0.818773 0.560302
399 5 0.191058 0.888954 0.544309
376 1 0.0925439 0.925305 0.550537
482 1 0.0196599 0.848343 0.565247
45 1 0.218366 0.502344 0.497201
567 2 0.139704 0.758063 0.566354
1011 2 0.255924 0.864446 0.503275
1184 1 0.306564 0.880337 0.51549
495 1 0.395633 0.931936 0.527663
1093 2 0.368825 0.876958 0.520271
41 1 0.257656 0.974603 0.507425
1113 1 0.49134 0.807557 0.521573
511 1 0.406646 0.844534 0.507161
83 2 0.442156 0.791605 0.507408
368 2 0.398085 0.822322 0.556649
414 1 0.453524 0.973005 0.555313
719 3 0.457166 0.961785 0.532633
1095 1 0.474838 0.758044 0.588517
315 1 0.422892 0.761637 0.554505
484 1 0.440668 0.867028 0.560811
450 2 0.435717 0.927876 0.568904
360 1 0.463278 0.921233 0.58744
731 1 0.35625 0.816356 0.572539
905 1 0.369284 0.935273 0.572773
1115 1 0.289903 0.767609 0.591111
310 5 0.302111 0.919225 0.550268
816 1 0.25997 0.837387 0.563107
221 2 0.294892 0.821291 0.580216
592 1 0.3702 0.839434 0.538261
1023 1 0.286242 0.873267 0.592418
234 3 0.349801 0.986388 0.587384
640 1 0.0349519 0.996151 0.567508
544 1 0.218306 0.592892 0.596427
685 2 0.0171141 0.502166 0.522781
173 1 0.0199795 0.540304 0.450306
161 1 0.499227 0.523417 0.467528
637 1 0.163155 0.976995 0.405674
361 5 0.0117016 0.6051 0.541109
268 1 0.461349 0.500515 0.532195
913 5 0.0231573 0.731903 0.66853
68 1 0.220183 0.575713 0.632138
852 2 0.231619 0.708087 0.666031
440 5 0.238746 0.688483 0.604751
329 1 0.208579 0.654334 0.656073
950 2 0.178964 0.608285 0.644556
710 1 0.240077 0.757786 0.652784
1123 1 0.329125 0.995639 0.609466
1166 1 0.204301 0.72986 0.683017
627 1 0.0348995 0.642394 0.665574
521 1 0.190763 0.860535 0.600798
337 5 0.0241363 0.511915 0.629803
1104 1 0.0106553 0.534664 0.664337
819 1 0.0718808 0.656575 0.604163
1020 1 0.0428331 0.744564 0.634623
609 2 0.0976797 0.617613 0.618589
704 1 0.131638 0.572656 0.651711
891 1 0.122417 0.560071 0.611458
455 1 0.146776 0.644316 0.630675
955 1 0.0492802 0.605278 0.631667
437 5 0.120644 0.724254 0.651638
906 2 0.0282878 0.59175 0.653758
1008 1 0.393848 0.748914 0.654377
1086 1 0.491327 0.976525 0.65156
931 1 0.28082 0.996845 0.640941
1191 1 0.465884 0.745707 0.625263
1074 2 0.461602 0.514482 0.64448
106 1 0.45193 0.575175 0.643058
282 5 0.490656 0.598228 0.613289
119 1 0.401136 0.615002 0.612029
217 1 0.291936 0.821766 0.634516
125 1 0.300493 0.701136 0.671045
1125 2 0.256164 0.576069 0.614302
186 2 0.346621 0.712036 0.658463
923 1 0.30029 0.622812 0.618872
733 1 0.289665 0.522356 0.609079
927 1 0.350597 0.659597 0.645309
363 1 0.346404 0.556405 0.638058
129 2 0.361439 0.613179 0.629435
1180 5 0.375499 0.738854 0.604214
960 1 0.252145 0.922535 0.662059
937 3 0.235726 0.946187 0.642783
442 2 0.237854 0.90406 0.601442
1167 2 0.231223 0.801692 0.637881
588 1 0.211085 0.774596 0.618828
653 1 0.244592 0.925757 0.620931
1110 2 0.331988 0.977918 0.630279
80 1 0.181777 0.841874 0.63839
712 1 0.109549 0.797071 0.612715
1067 2 0.167773 0.799675 0.604659
345 1 0.021559 0.840268 0.622844
802 2 0.0469182 0.785496 0.617196
244 3 0.135557 0.890694 0.639982
324 1 0.167492 0.948614 0.644641
1124 2 0.0688262 0.931012 0.603149
1003 1 0.080453 0.866322 0.65034
236 1 0.0109187 0.765615 0.600093
502 2 0.0200164 0.869291 0.642779
60 1 0.0970888 0.913784 0.621063
1106 1 0.404412 0.82708 0.634684
1176 5 0.445752 0.898843 0.666368
338 1 0.492749 0.831677 0.646197
838 1 0.45643 0.958306 0.620114
491 2 0.447629 0.786734 0.641561
99 2 0.494758 0.929329 0.606022
867 5 0.371911 0.853938 0.606176
1046 1 0.00483457 0.924536 0.601226
132 1 0.364091 0.867392 0.664389
177 3 0.347915 0.85597 0.643135
908 1 0.348367 0.91619 0.629564
1103 2 0.449063 0.997552 0.636703
483 1 0.481619 0.501686 0.623867
17 2 0.499589 0.738212 0.606653
285 1 0.67585 0.166642 0.375424
725 1 0.632368 0.0644763 0.367205
464 1 0.702213 0.0895142 0.342601
659 5 0.67842 0.000269168 0.392404
1178 2 0.703337 0.218794 0.367149
1026 1 0.737316 0.199235 0.350584
1092 2 0.694246 0.0591033 0.362213
810 1 0.747901 0.0768186 0.372634
692 2 0.794233 0.374651 0.355
1016 5 0.587087 0.15072 0.360627
321 1 0.524404 0.0511782 0.37345
934 1 0.514543 0.24281 0.365486
1148 2 0.583879 0.0404503 0.379528
757 1 0.530177 0.18138 0.338105
840 1 0.597396 0.0703031 0.397924
328 2 0.529667 0.24399 0.343373
497 5 0.814675 0.269472 0.325194
614 1 0.976903 0.208094 0.364394
1073 2 0.807534 0.0598087 0.379728
1175 1 0.56978 0.174828 0.39854
818 2 0.864638 0.0866292 0.341083
1032 1 0.806992 0.00595444 0.393209
330 1 0.872695 0.187074 0.349487
540 5 0.823773 0.186227 0.375081
957 1 0.937911 0.0396749 0.389759
992 5 0.962266 0.104948 0.368614
288 2 0.926935 0.218209 0.350646
1068 1 0.820993 0.102569 0.327156
990 1 0.84038 0.0683335 0.36012
1163 1 0.823628 0.104449 0.39344
107 1 0.927529 0.0797757 0.339898
585 3 0.740903 0.139087 0.337854
940 1 0.572543 0.361397 0.389051
688 1 0.691384 0.319882 0.337716
729 1 0.607576 0.35736 0.357907
16 2 0.637891 0.307222 0.349272
396 1 0.737712 0.449268 0.384832
254 2 0.681197 0.483357 0.380334
845 1 0.539621 0.0210383 0.33793
77 1 0.637191 0.438788 0.379801
1096 1 0.746997 0.248027 0.382076
984 1 0.662788 0.266843 0.365622
428 1 0.634882 0.488219 0.330447
456 1 0.51098 0.360053 0.333868
267 1 0.590188 0.269401 0.342267
774 1 0.546348 0.437444 0.364459
1192 2 0.590323 0.398316 0.372464
822 5 0.584337 0.266563 0.386073
799 2 0.756238 0.31477 0.387345
436 1 0.91503 0.464722 0.347422
299 1 0.932573 0.359383 0.36473
1200 1 0.836006 0.409425 0.372195
261 1 0.922845 0.276066 0.341998
947 2 0.896285 0.310601 0.357402
467 2 0.877998 0.282846 0.395705
732 2 0.802921 0.451524 0.385443
341 1 0.956496 0.452464 0.379176
297 1 0.819016 0.31356 0.394462
1045 1 0.839087 0.330003 0.350597
745 3 0.908893 0.42451 0.365711
904 5 0.994491 0.326762 0.385846
1010 1 0.891292 0.272551 0.374473
555 1 0.779089 0.412561 0.339085
676 1 0.75697 0.351381 0.369544
1019 5 0.530702 0.121394 0.463309
1030 2 0.537734 0.251314 0.487657
146 1 0.571393 0.203747 0.477949
691 1 0.631202 0.123649 0.486975
713 1 0.639029 0.0191701 0.492383
613 2 0.632037 0.179783 0.475784
179 1 0.671853 0.217896 0.487954
469 5 0.726796 0.0427754 0.473485
783 1 0.680275 0.065482 0.444242
2 1 0.612236 0.131926 0.427819
454 1 0.651141 0.164687 0.456249
401 5 0.740822 0.212295 0.454568
128 5 0.613677 0.0263364 0.459742
489 1 0.721322 0.148837 0.429258
864 2 0.667588 0.128968 0.439217
795 5 0.658224 0.203461 0.403517
770 1 0.518108 0.00895442 0.453073
3 2 0.57832 0.120954 0.409496
30 1 0.522195 0.0961017 0.417156
693 5 0.759855 0.236261 0.498999
478 1 0.776601 0.128676 0.47097
682 5 0.944222 0.113438 0.498967
253 5 0.875026 0.0400364 0.47351
622 2 0.83372 0.160993 0.472721
394 1 0.97516 0.0382424 0.47646
116 1 0.855328 0.159773 0.49328
257 3 0.993795 0.00156343 0.493679
199 5 0.880815 0.0160758 0.4134
683 1 0.985686 0.244437 0.455688
782 1 0.825961 0.221492 0.46644
746 1 0.985948 0.163625 0.421063
582 5 0.912556 0.202171 0.438265
1179 5 0.964273 0.118526 0.452824
522 5 0.816182 0.184759 0.425424
214 1 0.879179 0.229884 0.406623
829 1 0.877351 0.136176 0.45886
493 5 0.903884 0.120397 0.406161
95 5 0.789918 0.0724723 0.439138
517 5 0.766679 0.18809 0.404529
880 1 0.508315 0.423777 0.472365
466 1 0.520818 0.302455 0.475433
218 5 0.596277 0.366892 0.472444
1052 5 0.684503 0.310828 0.481659
1168 5 0.727824 0.435421 0.488897
546 2 0.598686 0.29387 0.438515
721 5 0.625941 0.414066 0.417938
593 3 0.657785 0.481773 0.455439
433 1 0.733027 0.358977 0.436354
312 1 0.651638 0.288762 0.42536
1004 2 0.754816 0.398916 0.451966
44 2 0.711966 0.311281 0.423307
57 1 0.619324 0.280169 0.458178
37 1 0.718208 0.331349 0.402831
669 1 0.70061 0.427897 0.458777
767 1 0.593687 0.477744 0.464196
586 1 0.57927 0.356258 0.439403
536 1 0.518661 0.464771 0.439443
1133 1 0.548165 0.258663 0.431583
863 2 0.53032 0.472338 0.460296
1091 1 0.779949 0.365465 0.468077
761 3 0.841531 0.366838 0.480286
476 5 0.907622 0.238264 0.477726
357 2 0.878036 0.477179 0.498289
263 1 0.889751 0.356726 0.464152
1138 1 0.942711 0.464097 0.493829
735 1 0.843011 0.43678 0.485664
636 1 0.880342 0.493873 0.432801
674 1 0.819839 0.454186 0.406358
64 2 0.818717 0.480231 0.426366
604 5 0.968971 0.264339 0.422902
131 1 0.919655 0.325318 0.403562
1021 5 0.830678 0.307364 0.441811
1190 5 0.918506 0.414345 0.415416
1035 5 0.932625 0.438807 0.457237
103 1 0.792422 0.441184 0.441504
672 1 0.754858 0.26446 0.426506
1121 2 0.568673 0.13329 0.52705
1109 1 0.507681 0.148732 0.521256
164 1 0.595694 0.0810992 0.517738
73 2 0.601067 0.249413 0.523718
58 1 0.69766 0.0853887 0.511374
901 2 0.64121 0.0774875 0.501671
304 1 0.604453 0.186345 0.522209
1041 1 0.574872 0.127043 0.548638
936 1 0.729035 0.0503597 0.595047
1139 1 0.645604 0.0871221 0.57214
53 1 0.693038 0.1447 0.595563
626 2 0.61352 0.139529 0.56518
210 5 0.715971 0.056711 0.541805
339 2 0.700901 0.0937867 0.58279
43 5 0.706682 0.181705 0.531204
369 1 0.652946 0.184396 0.558685
971 1 0.680566 0.249492 0.592195
976 5 0.504971 0.381331 0.4152
830 1 0.576499 0.158554 0.581856
350 2 0.562156 0.022311 0.590976
250 2 0.539346 0.180177 0.597529
1195 1 0.512322 0.0599948 0.589134
487 5 0.513612 0.0517648 0.550358
1154 5 0.782317 0.0988734 0.502843
515 5 0.861275 0.105596 0.526125
408 1 0.946085 0.13734 0.527264
384 5 0.892833 0.211976 0.519851
224 1 0.809442 0.0256522 0.523287
794 1 0.94685 0.00713754 0.510718
1198 1 0.809094 0.181489 0.551572
157 1 0.905986 0.0404815 0.582813
736 5 0.828936 0.052053 0.598963
1005 1 0.847344 0.0869132 0.56015
332 1 0.96981 0.127573 0.562512
1187 2 0.883822 0.0341611 0.563147
809 2 0.98449 0.131969 0.583015
677 1 0.979889 0.219105 0.547186
118 2 0.805075 0.132406 0.565334
147 1 0.921685 0.0189908 0.54579
570 1 0.934985 0.160121 0.593324
200 2 0.98401 0.155779 0.544045
273 1 0.816807 0.158324 0.584884
228 1 0.74726 0.105827 0.567905
895 1 0.544833 0.39212 0.502975
427 2 0.59903 0.406275 0.513371
943 5 0.510178 0.325718 0.524088
509 1 0.588943 0.395252 0.534903
878 1 0.571125 0.271601 0.505524
924 1 0.611495 0.471416 0.513
612 1 0.751372 0.323835 0.516247
235 1 0.657106 0.279573 0.52703
279 1 0.651605 0.373863 0.506267
899 1 0.73639 0.460973 0.517716
948 3 0.691335 0.337238 0.52314
431 2 0.713984 0.481989 0.586128
379 2 0.719024 0.449041 0.537695
720 1 0.748348 0.268384 0.563533
890 1 0.753452 0.434726 0.594201
831 2 0.633605 0.390572 0.581454
98 1 0.753445 0.32566 0.592144
203 2 0.710901 0.29182 0.579204
716 1 0.6963 0.386941 0.538273
391 1 0.664864 0.444488 0.577212
351 1 0.662527 0.334789 0.57566
172 1 0.672209 0.489227 0.543525
801 1 0.568828 0.486322 0.555101
1119 3 0.556104 0.419262 0.553958
1056 1 0.557928 0.260976 0.539331
850 1 0.573258 0.3889 0.574077
1081 5 0.58797 0.270483 0.568962
336 1 0.869184 0.470137 0.519036
884 1 0.827896 0.274411 0.532035
843 5 0.919954 0.3926 0.526939
488 1 0.97558 0.301082 0.521293
825 2 0.814758 0.328919 0.520797
133 1 0.84391 0.336971 0.501349
18 1 0.811177 0.382571 0.57198
982 3 0.811977 0.255517 0.553963
1102 1 0.880708 0.444369 0.555869
769 1 0.857164 0.285863 0.569506
291 1 0.905992 0.367714 0.587337
1158 1 0.946218 0.269733 0.586816
623 1 0.993039 0.460749 0.572365
1100 2 0.82582 0.415888 0.553264
946 1 0.942917 0.324985 0.5561
869 3 0.986503 0.28661 0.543701
742 2 0.91211 0.314297 0.575603
266 1 0.977025 0.467708 0.535641
529 1 0.822542 0.374186 0.53637
530 3 0.939877 0.478691 0.555102
737 2 0.78881 0.379987 0.591736
189 1 0.770977 0.451377 0.550041
664 1 0.658554 0.49394 0.431795
687 1 0.502319 0.0793852 0.492409
1044 1 0.584741 0.00149685 0.572504
507 2 0.927319 0.223454 0.599969
300 2 0.568425 0.178087 0.646944
1043 1 0.630063 0.186698 0.652035
788 1 0.727041 0.160942 0.645288
354 2 0.696595 0.202056 0.604671
441 2 0.63068 0.00334109 0.622061
748 1 0.673263 0.218137 0.624207
875 1 0.610313 0.040432 0.605082
1152 1 0.673119 0.0333849 0.63436
122 5 0.64384 0.0828162 0.659791
46 5 0.754454 0.0832675 0.653363
656 2 0.69032 0.208673 0.645144
355 1 0.748474 0.377311 0.656357
539 1 0.531177 0.127726 0.647617
1025 1 0.525424 0.143143 0.615062
240 1 0.569281 0.236821 0.604943
601 1 0.545085 0.224981 0.636518
1140 2 0.994242 0.19989 0.63753
1108 5 0.956546 0.0036013 0.60504
932 1 0.856452 0.0334082 0.679544
194 5 0.960842 0.101854 0.665924
1182 5 0.864231 0.189703 0.655604
33 5 0.868692 0.0732673 0.640233
383 1 0.95677 0.187826 0.654769
93 1 0.958568 0.220625 0.619361
136 5 0.999365 0.331106 0.613534
666 1 0.864513 0.23062 0.602617
615 1 0.959018 0.0239911 0.632885
975 5 0.932323 0.099408 0.616394
335 1 0.833614 0.14238 0.620036
292 2 0.820401 0.185885 0.60473
1151 1 0.76071 0.209274 0.609853
448 5 0.753303 0.0912415 0.621598
223 1 0.617512 0.421835 0.637995
933 2 0.631547 0.367134 0.624462
152 1 0.630558 0.382515 0.604615
527 1 0.695439 0.342807 0.629902
471 1 0.746041 0.49133 0.66291
457 2 0.729355 0.325005 0.646244
771 1 0.723906 0.25731 0.650587
600 1 0.579263 0.491257 0.616246
1130 2 0.569879 0.462589 0.637513
641 1 0.525034 0.483481 0.651348
463 2 0.55148 0.270736 0.621804
1009 1 0.594083 0.317907 0.627871
193 1 0.51799 0.402334 0.617314
38 3 0.514793 0.465848 0.608274
453 1 0.905917 0.47143 0.645631
963 1 0.918392 0.374988 0.658868
1080 2 0.890745 0.398184 0.60617
65 1 0.915406 0.362743 0.622548
1132 2 0.894363 0.430567 0.65997
887 2 0.919389 0.332534 0.642218
675 1 0.832487 0.426637 0.668644
498 1 0.995841 0.418644 0.605069
569 1 0.868098 0.292794 0.64617
972 1 0.882445 0.459301 0.601406