ITEM: TIMESTEP
900
ITEM: NUMBER OF ATOMS
1200
ITEM: BOX BOUNDS pp pp pp
-7.6266250050336382e-02 2.5098596345622489e+01
-7.6266250050336382e-02 2.5098596345622489e+01
-2.5251128845723162e+01 5.0273458941295317e+01
ITEM: ATOMS id type xs ys zs
760 1 0.0770615 0.136379 0.393248
1149 3 0.241941 0.103454 0.350576
419 1 0.234191 0.150718 0.366917
108 1 0.227061 0.0408472 0.359896
456 1 0.48478 0.336391 0.349216
96 1 0.0442093 0.0393307 0.385794
635 5 0.235367 0.184665 0.328918
1076 1 0.186442 0.101753 0.337123
1193 1 0.11617 0.0869986 0.363662
580 5 0.151451 0.184606 0.366935
269 2 0.012912 0.246023 0.342442
638 5 0.107788 0.152233 0.329196
390 2 0.0947279 0.0793692 0.384075
645 3 0.164233 0.0502124 0.351824
967 1 0.0724689 0.223953 0.344928
917 2 0.431954 0.487407 0.388537
26 5 0.19904 0.395378 0.33117
542 1 0.147739 0.0628378 0.394707
935 2 0.458026 0.285574 0.340227
787 1 0.426751 0.24019 0.351686
893 5 0.359733 0.259767 0.379081
314 1 0.451083 0.19032 0.387916
590 2 0.489649 0.24321 0.384455
577 2 0.0992694 0.469756 0.364297
460 1 0.355232 0.464484 0.339227
559 1 0.433597 0.032147 0.356699
1053 1 0.299268 0.365299 0.339528
973 5 0.405198 0.141888 0.347744
565 5 0.295347 0.436232 0.378253
468 2 0.401399 0.152286 0.392203
1174 1 0.303898 0.11702 0.340429
1037 1 0.393522 0.108036 0.377177
432 5 0.321257 0.183422 0.361817
196 2 0.393695 0.0448621 0.37273
82 1 0.208791 0.297691 0.339885
346 2 0.261745 0.320667 0.349474
1146 5 0.00459808 0.246681 0.387307
1173 1 0.0784137 0.319449 0.39358
40 5 0.106474 0.317259 0.345855
804 1 0.236713 0.00674237 0.392376
813 1 0.0380835 0.471108 0.370153
403 5 0.160068 0.37125 0.383262
465 1 0.333162 0.0225923 0.373491
1071 1 0.248074 0.342262 0.369086
834 1 0.133976 0.475427 0.383176
418 1 0.0124465 0.309574 0.342417
915 1 0.117896 0.415508 0.354274
703 2 0.40413 0.476232 0.352268
241 1 0.450531 0.293958 0.383455
907 1 0.424641 0.0147308 0.389298
373 1 0.389378 0.46384 0.373261
1171 1 0.458007 0.445159 0.346692
409 1 0.470324 0.394387 0.377046
1159 2 0.423445 0.352191 0.380455
412 2 0.356561 0.328993 0.343482
628 1 0.403614 0.314354 0.33056
660 1 0.311856 0.278025 0.349661
151 1 0.38298 0.346845 0.363016
904 5 0.00361186 0.364468 0.370408
998 1 0.387379 0.362184 0.397853
290 1 0.346698 0.183536 0.395804
807 5 0.385502 0.478511 0.307856
500 5 0.471448 0.0159985 0.307255
640 1 0.0486098 0.00822827 0.568705
397 2 0.0344854 0.226876 0.472817
885 5 0.171404 0.187734 0.478415
1185 5 0.0833871 0.0940108 0.491409
88 1 0.0273156 0.168819 0.482111
28 1 0.207297 0.112255 0.492836
62 5 0.244088 0.0314458 0.445524
953 5 0.0840842 0.0268039 0.429437
102 5 0.477327 0.359368 0.44702
1060 5 0.141881 0.210877 0.438114
137 5 0.174253 0.113312 0.443563
377 2 0.0619474 0.164181 0.412566
537 1 0.216656 0.0706222 0.420679
15 5 0.0713081 0.0884815 0.456392
353 1 0.0775026 0.227076 0.410402
1017 1 0.0943544 0.233599 0.46529
1024 1 0.0893218 0.133932 0.429214
472 1 0.256241 0.0202476 0.484119
75 1 0.309929 0.105164 0.497493
375 2 0.260233 0.0839016 0.485025
206 1 0.252539 0.231675 0.494623
407 1 0.481816 0.215365 0.495107
296 1 0.0693602 0.00185887 0.503286
247 5 0.406063 0.110826 0.473636
378 2 0.455985 0.0253634 0.445345
516 1 0.446015 0.0894306 0.443399
406 1 0.469638 0.187487 0.429459
91 1 0.417427 0.12076 0.410403
1054 5 0.0286276 0.349368 0.459324
920 2 0.460708 0.122586 0.425933
211 5 0.339282 0.0476743 0.40838
858 1 0.262047 0.168893 0.437194
443 2 0.303464 0.13037 0.447235
14 1 0.329411 0.082182 0.436224
322 5 0.365433 0.228033 0.427325
968 1 0.270527 0.105268 0.465014
1117 5 0.0974088 0.372294 0.594857
72 1 0.349665 0.168057 0.455476
32 5 0.277983 0.247067 0.459778
364 1 0.0132395 0.373485 0.497328
779 5 0.149721 0.455932 0.470777
871 3 0.0191369 0.442038 0.49248
242 1 0.0186017 0.272708 0.48805
754 1 0.0430459 0.456666 0.471952
78 5 0.149422 0.301299 0.481456
34 1 0.245308 0.424599 0.479238
1099 1 0.393859 0.373253 0.567998
663 1 0.124068 0.368011 0.457733
518 1 0.056637 0.28897 0.599013
1079 5 0.221915 0.450729 0.412948
991 5 0.329288 0.110906 0.593836
435 1 0.190579 0.295627 0.44548
392 1 0.0136388 0.423919 0.440571
591 5 0.0242049 0.36478 0.41757
827 1 0.101831 0.310044 0.428658
689 2 0.150342 0.344235 0.440017
722 1 0.093351 0.488442 0.442422
1128 2 0.0367496 0.474219 0.451277
249 2 0.108211 0.285058 0.40853
265 1 0.167286 0.387706 0.425897
741 5 0.094038 0.442732 0.413179
348 5 0.490727 0.321284 0.557986
395 5 0.347621 0.0142772 0.509944
1078 1 0.375592 0.403249 0.468462
564 2 0.369261 0.359372 0.484161
139 5 0.249938 0.327505 0.489761
547 1 0.314921 0.480458 0.499614
561 1 0.350403 0.303776 0.475825
256 2 0.261226 0.481391 0.487938
447 2 0.476231 0.403167 0.488817
4 1 0.430982 0.358985 0.492211
204 1 0.452472 0.458776 0.496908
930 2 0.494297 0.0223803 0.499303
608 1 0.448949 0.460548 0.40733
812 2 0.39708 0.339544 0.585979
1070 2 0.194305 0.0318599 0.405706
696 5 0.412112 0.248247 0.458785
996 1 0.457396 0.29072 0.427844
188 5 0.252728 0.328635 0.400376
382 5 0.256414 0.250633 0.42401
1039 5 0.250122 0.372344 0.45164
109 1 0.330548 0.314207 0.422345
694 1 0.311773 0.454555 0.446796
494 2 0.35435 0.370853 0.416303
308 1 0.385664 0.397315 0.43314
633 1 0.30644 0.41182 0.410718
410 2 0.374415 0.434362 0.45016
550 1 0.132053 0.110792 0.519432
574 5 0.0586172 0.167576 0.514275
1155 1 0.133121 0.223944 0.508181
520 2 0.193701 0.113315 0.514196
811 1 0.224944 0.0627032 0.522573
643 1 0.222034 0.167324 0.521222
785 1 0.11405 0.0776053 0.583223
857 1 0.212523 0.0541196 0.579946
69 2 0.213268 0.212163 0.597164
114 2 0.236757 0.00821781 0.592856
487 5 0.488199 0.0568288 0.547353
1089 1 0.0178487 0.0848058 0.592178
1006 1 0.0614253 0.136061 0.54688
738 3 0.0771926 0.223939 0.592665
647 2 0.169878 0.103731 0.576891
192 1 0.165091 0.116838 0.555738
632 1 0.0269248 0.18407 0.58419
897 2 0.0618913 0.040995 0.586776
826 3 0.115965 0.0978485 0.541504
680 1 0.105732 0.0324754 0.541912
548 1 0.188943 0.157497 0.587681
803 5 0.202775 0.203303 0.553062
219 1 0.119143 0.235513 0.574046
23 1 0.347317 0.0925524 0.530659
298 2 0.261065 0.21647 0.515268
101 1 0.320353 0.189679 0.51732
854 2 0.345413 0.131475 0.513741
1118 1 0.276791 0.431668 0.589658
470 2 0.458317 0.181941 0.512046
413 1 0.433421 0.227995 0.52555
684 1 0.478345 0.0168441 0.520713
833 1 0.407069 0.144824 0.506551
943 5 0.483618 0.323078 0.519
81 1 0.409848 0.0260868 0.590942
961 2 0.44172 0.0814405 0.589157
900 3 0.420268 0.219054 0.591662
945 5 0.478138 0.195231 0.552802
42 1 0.482431 0.189068 0.586658
1057 1 0.316673 0.277516 0.559766
1161 1 0.430674 0.106349 0.569453
1066 5 0.383421 0.159867 0.550784
596 1 0.296137 0.174467 0.556921
1199 2 0.309894 0.222266 0.570819
10 1 0.255696 0.233409 0.582828
220 1 0.298993 0.00636961 0.589073
646 5 0.26598 0.0854072 0.549177
837 5 0.364588 0.0398653 0.556151
438 1 0.358618 0.202323 0.583045
1001 2 0.137317 0.278787 0.518718
92 1 0.0825575 0.311174 0.513072
916 1 0.057262 0.47192 0.509587
1194 5 0.321254 0.426753 0.560859
861 1 0.480928 0.49052 0.588637
605 1 0.185878 0.312965 0.510637
424 2 0.0219243 0.313329 0.504684
798 5 0.190773 0.405627 0.510221
877 1 0.440765 0.000440398 0.490171
317 3 0.222543 0.469493 0.581272
611 1 0.229253 0.337634 0.55123
215 1 0.190827 0.423369 0.567527
367 5 0.0543807 0.393278 0.533781
105 2 0.282484 0.306799 0.544215
366 1 0.0447768 0.285044 0.554217
985 5 0.345321 0.497937 0.415223
759 1 0.132328 0.339323 0.565798
231 2 0.106858 0.282023 0.559623
153 1 0.136172 0.268582 0.540487
786 2 0.00713272 0.469113 0.588998
1105 1 0.322849 0.34705 0.533509
127 1 0.147343 0.394977 0.537259
352 1 0.0729568 0.47209 0.590956
174 2 0.178111 0.374827 0.554877
439 5 0.0995764 0.465455 0.56029
100 2 0.325993 0.402574 0.521077
922 5 0.376429 0.239392 0.496097
977 1 0.261617 0.258027 0.531708
535 1 0.271694 0.430814 0.528056
966 1 0.378519 0.43263 0.529152
1013 1 0.333664 0.377616 0.500916
372 1 0.342595 0.326401 0.595771
227 1 0.423619 0.281796 0.580515
851 1 0.405719 0.491127 0.451045
652 5 0.402307 0.304767 0.54619
309 5 0.253185 0.149545 0.400327
784 2 0.429205 0.453871 0.541233
20 1 0.150635 0.0255184 0.456761
706 1 0.415582 0.482426 0.559679
303 1 0.474813 0.40773 0.542789
340 1 0.371723 0.483458 0.591245
533 1 0.171285 0.278541 0.405892
556 1 0.176541 0.487665 0.599003
880 1 0.493607 0.420997 0.469378
479 1 0.452817 0.00370937 0.425398
344 1 0.439409 0.368752 0.599772
130 5 0.000505447 0.338821 0.577827
1000 1 0.317733 0.403325 0.651658
123 1 0.245675 0.16584 0.646806
610 1 0.250339 0.190466 0.614043
1094 2 0.258874 0.0502444 0.630455
54 1 0.383302 0.485323 0.643139
1131 5 0.172732 0.0132195 0.677427
142 1 0.18325 0.1183 0.672946
71 2 0.364116 0.425926 0.638469
1085 2 0.114956 0.496354 0.605902
711 5 0.102959 0.0859323 0.621576
700 1 0.144365 0.153463 0.641515
359 1 0.213851 0.0703369 0.644409
1126 1 0.0968119 0.194248 0.612864
47 2 0.106447 0.200385 0.634654
94 1 0.049103 0.198806 0.644894
230 2 0.194704 0.128382 0.652873
1072 1 0.450773 0.170237 0.638548
753 1 0.475075 0.0666221 0.63716
999 1 0.40339 0.261389 0.647548
31 5 0.324135 0.314082 0.626744
1108 5 0.0294707 0.0204558 0.633163
209 1 0.423275 0.239047 0.613828
607 2 0.318196 0.466902 0.601796
337 5 0.00243143 0.453152 0.627892
255 1 0.346864 0.189989 0.631261
986 1 0.228377 0.0336489 0.612586
202 5 0.314403 0.291989 0.654644
365 1 0.293809 0.103528 0.627196
111 2 0.40648 0.213751 0.63312
651 2 0.28767 0.166782 0.630126
458 1 0.134778 0.258024 0.637847
51 1 0.151021 0.416051 0.651181
343 1 0.230701 0.298772 0.631515
1114 2 0.171427 0.294484 0.62485
1145 1 0.0541927 0.384594 0.641111
1183 5 0.136538 0.320372 0.664129
870 1 0.138905 0.351586 0.624278
415 1 0.423509 0.117284 0.605698
956 1 0.334788 0.432576 0.618856
1103 2 0.46387 0.00215124 0.639021
1042 2 0.496276 0.126835 0.634052
631 1 0.105067 0.457392 0.622633
1069 2 0.112068 0.40311 0.634757
1150 1 0.410069 0.382769 0.634082
639 5 0.238438 0.460932 0.651642
525 2 0.459957 0.372263 0.620365
551 1 0.179125 0.25983 0.60666
931 1 0.300736 0.00461042 0.636987
558 5 0.254621 0.332335 0.601545
162 1 0.00500005 0.119448 0.628028
370 1 0.118198 0.519933 0.353039
969 1 0.485879 0.768384 0.364041
388 1 0.248672 0.726515 0.388553
1136 1 0.22328 0.7194 0.353159
575 1 0.233292 0.514025 0.389068
429 5 0.256061 0.633802 0.38002
739 5 0.079047 0.627543 0.397745
1101 1 0.159028 0.578707 0.37973
763 1 0.118288 0.741416 0.35148
404 1 0.330432 0.765634 0.361809
708 1 0.145614 0.640001 0.347825
734 5 0.410435 0.725508 0.380704
85 1 0.0588007 0.612173 0.366863
839 2 0.16601 0.700865 0.349515
572 2 0.171952 0.526441 0.391853
1144 3 0.122669 0.587712 0.361269
422 5 0.0444401 0.719395 0.370213
919 1 0.403834 0.543731 0.394488
1186 1 0.494173 0.946097 0.359743
1033 1 0.421128 0.644049 0.342371
697 5 0.370003 0.932317 0.372717
1064 1 0.484834 0.596416 0.364525
918 1 0.406119 0.541813 0.353175
758 1 0.438446 0.872923 0.376619
715 2 0.421941 0.603305 0.358022
52 5 0.362991 0.820408 0.387332
176 5 0.410935 0.741625 0.344218
579 1 0.382097 0.621859 0.375431
124 2 0.393661 0.609807 0.396615
668 5 0.283172 0.518178 0.350424
1135 1 0.089396 0.728281 0.396959
1122 1 0.255744 0.935356 0.363638
1088 2 0.217893 0.884869 0.369949
286 1 0.243394 0.827104 0.368775
797 1 0.203657 0.893896 0.393211
993 5 0.0106621 0.852497 0.399172
89 1 0.163425 0.889579 0.359187
634 2 0.4954 0.902383 0.375532
84 3 0.262576 0.760375 0.367089
762 1 0.135411 0.989447 0.350756
416 1 0.0617775 0.909059 0.355635
6 5 0.0745402 0.815688 0.365704
519 2 0.118035 0.935342 0.359908
679 1 0.305932 0.908118 0.394163
750 5 0.331147 0.871215 0.353076
747 1 0.121964 0.946363 0.38168
9 1 0.490227 0.505315 0.379589
187 1 0.000951581 0.941757 0.382565
793 3 0.268468 0.999075 0.371915
914 1 0.499874 0.935799 0.394449
1007 1 0.180837 0.60333 0.480153
12 5 0.0866349 0.745693 0.470635
1157 1 0.0918462 0.651913 0.469435
844 2 0.236792 0.741536 0.485082
531 1 0.223968 0.734147 0.425222
718 1 0.244723 0.631726 0.423066
620 2 0.201129 0.674957 0.429587
135 1 0.188373 0.669771 0.451181
1180 5 0.372386 0.740563 0.598104
1058 1 0.140253 0.671808 0.420763
670 1 0.139012 0.583473 0.448067
444 1 0.152118 0.525682 0.412474
445 3 0.149028 0.523041 0.435542
994 5 0.00875665 0.573397 0.424942
637 1 0.163852 0.977345 0.412286
446 1 0.0312358 0.679706 0.421012
1137 2 0.0866465 0.712692 0.417862
1169 2 0.1491 0.630161 0.462811
1083 1 0.334048 0.633785 0.477465
213 5 0.364961 0.540838 0.478948
1002 1 0.273978 0.518493 0.470641
1018 2 0.30635 0.642991 0.49665
349 1 0.263839 0.691607 0.495899
1197 2 0.450108 0.745376 0.467829
749 1 0.395901 0.709669 0.467028
554 5 0.438993 0.654287 0.49345
238 1 0.472671 0.552976 0.427824
501 5 0.485521 0.660537 0.427759
499 1 0.424548 0.725587 0.43141
528 1 0.412975 0.606531 0.455941
1049 3 0.446827 0.548719 0.448922
1031 1 0.326969 0.650309 0.443994
789 1 0.297714 0.553844 0.436975
562 1 0.33666 0.733673 0.409603
178 1 0.494384 0.696477 0.554593
361 5 0.00464262 0.614353 0.546655
847 1 0.34737 0.614844 0.411842
911 2 0.304888 0.613629 0.42811
740 2 0.272991 0.506974 0.449754
1038 2 0.369312 0.654071 0.460452
426 1 0.0697682 0.84578 0.470461
1087 1 0.131754 0.9523 0.481521
11 1 0.174058 0.733759 0.484194
167 5 0.146383 0.848348 0.488931
862 1 0.0145914 0.97614 0.536208
374 1 0.239903 0.901745 0.486414
949 5 0.00939174 0.88281 0.521756
705 2 0.236742 0.900786 0.447401
183 2 0.260359 0.88506 0.406288
603 1 0.246899 0.90938 0.425534
475 5 0.0306807 0.90762 0.427905
823 5 0.169817 0.778998 0.452449
180 5 0.0858199 0.855409 0.440099
35 1 0.097711 0.761396 0.431421
594 1 0.176521 0.922099 0.451526
988 2 0.132564 0.964012 0.460074
257 3 0.00845496 0.998914 0.492547
892 1 0.0758028 0.956132 0.45082
997 5 0.0248453 0.781199 0.44773
334 1 0.115657 0.879973 0.410559
941 1 0.344855 0.956823 0.483238
764 1 0.340858 0.823521 0.470462
881 1 0.268094 0.746372 0.465954
1015 3 0.277247 0.956328 0.479729
434 1 0.248957 0.798339 0.495119
294 1 0.431759 0.904562 0.474151
293 1 0.458618 0.761561 0.488605
952 2 0.423117 0.504531 0.580369
874 2 0.405032 0.963198 0.476765
598 1 0.451052 0.637295 0.400349
140 1 0.404319 0.817634 0.417715
699 1 0.403049 0.920839 0.410814
958 3 0.399088 0.854482 0.46345
325 1 0.441048 0.80316 0.458543
277 1 0.480758 0.884965 0.430509
208 1 0.213146 0.500891 0.442135
898 3 0.448896 0.970279 0.405373
356 2 0.417816 0.876836 0.425979
1034 1 0.37942 0.883729 0.443179
226 1 0.274874 0.944888 0.456183
138 1 0.334784 0.777216 0.439784
1156 3 0.270739 0.754241 0.409022
513 2 0.299662 0.797383 0.456915
980 5 0.346967 0.977271 0.432082
86 1 0.410692 0.995273 0.457832
144 2 0.37614 0.760925 0.42454
942 1 0.25243 0.839235 0.451799
1189 5 0.142823 0.686695 0.510768
549 1 0.0708928 0.672346 0.529351
1147 5 0.0814902 0.601768 0.50372
665 2 0.0263179 0.718761 0.528072
657 1 0.176492 0.590201 0.518957
1112 3 0.206048 0.573591 0.499174
618 5 0.248052 0.519366 0.528739
655 5 0.241956 0.662499 0.533499
120 1 0.231078 0.617069 0.563205
910 5 0.120681 0.608146 0.545025
182 1 0.149534 0.549619 0.569683
39 1 0.0567267 0.533746 0.53865
616 1 0.0245251 0.649607 0.579949
506 1 0.132822 0.647647 0.576725
1142 5 0.0415925 0.55609 0.56843
820 2 0.0807545 0.678014 0.584564
751 1 0.1731 0.736135 0.555345
145 1 0.081043 0.736392 0.575219
1061 2 0.179577 0.602937 0.575462
307 2 0.369574 0.698184 0.525816
678 1 0.353228 0.655294 0.510877
568 5 0.348384 0.540833 0.519262
168 1 0.271839 0.591429 0.502082
386 1 0.267216 0.822215 0.408231
978 2 0.46149 0.513631 0.507437
283 1 0.406675 0.742467 0.51668
387 1 0.424613 0.563204 0.501991
581 1 0.411432 0.666993 0.539248
902 1 0.40232 0.682252 0.573423
181 1 0.423071 0.569239 0.579971
1170 2 0.430154 0.703863 0.556091
541 5 0.411047 0.573838 0.544229
281 1 0.314685 0.573293 0.546394
79 1 0.319599 0.715305 0.537215
1 1 0.321623 0.602662 0.580396
143 1 0.257245 0.520449 0.570096
1028 3 0.387163 0.625944 0.585464
534 2 0.283384 0.577341 0.565254
886 5 0.286486 0.724363 0.565814
490 5 0.13393 0.822815 0.530613
1050 1 0.0996577 0.900288 0.50963
474 1 0.16948 0.979563 0.513894
7 1 0.0205002 0.738129 0.507324
576 2 0.117632 0.959739 0.502707
545 2 0.221725 0.997944 0.525373
246 1 0.213903 0.862862 0.519212
702 1 0.0413846 0.772 0.539181
841 5 0.248656 0.794568 0.540787
1116 1 0.21195 0.949562 0.593175
1141 1 0.220146 0.985748 0.546344
268 1 0.45294 0.501584 0.528511
262 1 0.165972 0.762406 0.589908
727 3 0.0830031 0.879451 0.565756
860 2 0.0654485 0.986038 0.548284
451 5 0.158613 0.977616 0.569764
405 1 0.093598 0.905894 0.58734
765 1 0.122995 0.824515 0.563805
399 5 0.185521 0.899733 0.547067
376 1 0.0976623 0.931739 0.551143
482 1 0.020453 0.8594 0.559978
170 1 0.00779061 0.99119 0.413131
567 2 0.140077 0.765164 0.570357
1011 2 0.252994 0.860579 0.502399
1184 1 0.31215 0.869707 0.510092
495 1 0.396245 0.931497 0.523874
1093 2 0.368621 0.874043 0.519294
41 1 0.272612 0.966726 0.518236
1113 1 0.491604 0.80221 0.521529
511 1 0.410408 0.842107 0.506341
83 2 0.443819 0.787208 0.50745
368 2 0.389283 0.825319 0.55679
414 1 0.453261 0.970695 0.554247
719 3 0.457012 0.958009 0.531188
1095 1 0.455441 0.771382 0.588802
315 1 0.408007 0.764475 0.553752
484 1 0.436768 0.868423 0.559401
450 2 0.434293 0.926875 0.568617
360 1 0.462311 0.923456 0.588262
731 1 0.346807 0.829407 0.572841
905 1 0.373466 0.94052 0.574234
1115 1 0.282835 0.778778 0.592874
310 5 0.274115 0.901576 0.540606
816 1 0.247597 0.845842 0.566695
221 2 0.289605 0.835023 0.582359
592 1 0.359415 0.845444 0.538924
1023 1 0.287986 0.881906 0.597837
234 3 0.35948 0.978961 0.592583
70 2 0.0164278 0.872584 0.477424
544 1 0.205626 0.596957 0.594655
685 2 0.0214022 0.508739 0.522564
853 5 0.159446 0.793148 0.402395
45 1 0.207509 0.502426 0.49846
815 2 0.147513 0.925383 0.400017
252 1 0.00894278 0.93318 0.484488
342 5 0.143669 0.505122 0.526776
1062 5 0.491406 0.8173 0.406417
161 1 0.497892 0.527072 0.46209
305 1 0.498461 0.710364 0.460682
173 1 3.17203e-05 0.526864 0.450973
913 5 0.117943 0.667229 0.663511
68 1 0.216555 0.560127 0.628841
852 2 0.251003 0.692844 0.66564
440 5 0.233601 0.700689 0.604914
329 1 0.238852 0.645931 0.650394
950 2 0.197526 0.597114 0.644961
710 1 0.228773 0.750147 0.658333
1123 1 0.361271 0.9559 0.61418
1166 1 0.21686 0.670897 0.682574
627 1 0.0603215 0.586625 0.667827
521 1 0.192886 0.849082 0.605996
1046 1 0.0060005 0.922572 0.60616
205 5 0.309427 0.965703 0.680088
819 1 0.0918267 0.667573 0.606408
1020 1 0.0357371 0.732444 0.636874
609 2 0.0937739 0.617026 0.621142
704 1 0.186763 0.558744 0.661149
891 1 0.10246 0.56001 0.610892
455 1 0.146916 0.627184 0.634495
955 1 0.0423903 0.610563 0.633159
437 5 0.278596 0.597328 0.683218
483 1 0.451273 0.522988 0.622628
1008 1 0.421369 0.732443 0.652778
104 5 0.272718 0.824091 0.682286
177 3 0.338604 0.834687 0.641616
1191 1 0.48058 0.746767 0.621878
1074 2 0.410831 0.543242 0.638626
106 1 0.447451 0.568184 0.653598
393 5 0.119859 0.600213 0.691468
119 1 0.385452 0.645051 0.607245
217 1 0.272004 0.821465 0.635902
125 1 0.314709 0.695534 0.668734
1125 2 0.245659 0.574222 0.610095
186 2 0.356046 0.726087 0.655322
923 1 0.285011 0.623504 0.615064
733 1 0.281286 0.521054 0.606706
927 1 0.342161 0.692224 0.636839
363 1 0.361881 0.583422 0.63329
129 2 0.342514 0.638254 0.62337
906 2 0.0168544 0.580448 0.65212
960 1 0.253702 0.900671 0.667451
937 3 0.218199 0.905255 0.649065
442 2 0.23113 0.901819 0.606686
1167 2 0.216378 0.793578 0.642142
588 1 0.19014 0.763121 0.625349
653 1 0.227333 0.923533 0.627027
1110 2 0.350638 0.962405 0.635256
80 1 0.178262 0.846071 0.645802
712 1 0.0975772 0.78857 0.61437
1067 2 0.157784 0.794033 0.60912
502 2 0.00898449 0.855756 0.64857
802 2 0.0373706 0.773982 0.619599
244 3 0.125344 0.895873 0.643174
324 1 0.162775 0.94286 0.654455
1124 2 0.0711032 0.934015 0.604857
1003 1 0.0693346 0.878445 0.653367
1104 1 0.0150344 0.516346 0.649971
1014 1 0.402992 0.9918 0.644161
60 1 0.110278 0.915602 0.621241
1106 1 0.395179 0.805278 0.629734
50 5 0.113366 0.5017 0.66608
338 1 0.49367 0.809275 0.647588
838 1 0.477044 0.962643 0.622038
491 2 0.447925 0.774703 0.638572
132 1 0.34192 0.789146 0.658838
908 1 0.343278 0.904578 0.644148
345 1 0.0132976 0.829092 0.628672
17 2 0.499032 0.741905 0.601067
459 1 0.0332913 0.703208 0.670138
867 5 0.393714 0.853808 0.600039
236 1 0.00214237 0.747821 0.603254
425 1 0.00327511 0.800015 0.661317
1065 2 0.00216386 0.734989 0.655344
1111 1 0.0741616 0.998028 0.602562
285 1 0.725883 0.17123 0.394952
725 1 0.644727 0.0674358 0.371459
464 1 0.703561 0.136888 0.354603
676 1 0.767476 0.35993 0.382284
1178 2 0.741951 0.214907 0.380619
1026 1 0.785059 0.19648 0.365699
1092 2 0.702654 0.0769916 0.362531
810 1 0.747132 0.0755771 0.379304
692 2 0.782019 0.372959 0.361667
1016 5 0.572683 0.136143 0.372129
321 1 0.543147 0.0443244 0.368481
934 1 0.523965 0.230652 0.366734
1148 2 0.596461 0.0319748 0.37996
757 1 0.542869 0.152881 0.343482
555 1 0.74384 0.402668 0.348048
328 2 0.544874 0.216102 0.346586
497 5 0.663022 0.400743 0.330948
614 1 0.974699 0.223464 0.35869
1073 2 0.810186 0.0659165 0.382182
745 3 0.898039 0.424231 0.360221
818 2 0.847684 0.111517 0.343464
1010 1 0.883352 0.278644 0.378858
330 1 0.896253 0.157282 0.34501
540 5 0.859376 0.173218 0.382574
957 1 0.940542 0.0287432 0.389224
992 5 0.968786 0.0594981 0.327915
288 2 0.929675 0.210575 0.342856
1068 1 0.793136 0.139548 0.335326
990 1 0.839336 0.09003 0.363969
216 1 0.658014 0.492837 0.361417
107 1 0.869325 0.0665981 0.330019
585 3 0.749782 0.182318 0.34651
940 1 0.585821 0.332773 0.383939
688 1 0.709457 0.237823 0.339699
729 1 0.651397 0.324247 0.356772
16 2 0.667233 0.261615 0.352271
396 1 0.745762 0.470456 0.38198
254 2 0.681315 0.464414 0.379474
845 1 0.533039 0.0104226 0.333219
77 1 0.654486 0.406303 0.379816
1096 1 0.772786 0.262464 0.391244
984 1 0.690875 0.243016 0.371587
121 5 0.598579 0.0789459 0.337549
389 1 0.974584 0.22171 0.327355
267 1 0.609551 0.235675 0.347066
774 1 0.572718 0.39846 0.356079
1192 2 0.614631 0.366657 0.368631
822 5 0.612494 0.231252 0.390057
799 2 0.778072 0.320168 0.399716
436 1 0.920572 0.454108 0.340378
299 1 0.912307 0.355129 0.358464
1200 1 0.830622 0.418111 0.368163
261 1 0.889017 0.258183 0.34434
947 2 0.875627 0.304098 0.358911
686 2 0.985523 0.495783 0.379547
732 2 0.808497 0.460687 0.384175
341 1 0.927801 0.45838 0.377351
1032 1 0.82335 0.00387752 0.38381
1045 1 0.813531 0.321609 0.355099
690 3 0.503944 0.397291 0.356205
649 1 0.659878 0.494953 0.396862
903 1 0.720649 0.0367871 0.347917
477 5 0.959233 0.373723 0.327363
385 5 0.751127 0.0770303 0.317617
624 3 0.501717 0.010235 0.353375
929 1 0.509207 0.252141 0.332961
428 1 0.624662 0.482169 0.327631
1019 5 0.520185 0.126442 0.465992
1030 2 0.534143 0.250104 0.487385
146 1 0.572014 0.201314 0.481553
691 1 0.629786 0.120829 0.488421
713 1 0.645609 0.0190115 0.498278
613 2 0.632136 0.180309 0.477965
179 1 0.678788 0.213173 0.486965
469 5 0.733136 0.0339547 0.481392
783 1 0.681144 0.0616318 0.458017
2 1 0.617421 0.0988949 0.430414
454 1 0.642339 0.163044 0.457047
401 5 0.749258 0.178712 0.460844
128 5 0.597804 0.0123063 0.465882
489 1 0.715717 0.12685 0.433993
864 2 0.66428 0.111134 0.445752
795 5 0.668291 0.194979 0.417835
869 3 0.986334 0.2698 0.54232
3 2 0.57916 0.0999893 0.412664
30 1 0.517411 0.101649 0.419148
693 5 0.771255 0.244267 0.495072
478 1 0.793446 0.116597 0.47989
682 5 0.962591 0.115358 0.496322
253 5 0.902536 0.0289623 0.471033
622 2 0.848783 0.150295 0.47975
394 1 0.999531 0.042627 0.475509
116 1 0.871096 0.152341 0.499958
115 1 0.519929 0.250728 0.403967
199 5 0.860494 0.00398659 0.412987
683 1 0.990925 0.230669 0.456915
782 1 0.83716 0.210928 0.472566
840 1 0.591587 0.0488312 0.400637
582 5 0.912077 0.188916 0.438789
1179 5 0.981904 0.128307 0.453157
522 5 0.791449 0.165697 0.419499
214 1 0.893129 0.232171 0.411074
829 1 0.892777 0.123898 0.467303
517 5 0.702533 0.0875376 0.406275
95 5 0.782399 0.0758627 0.451655
801 1 0.565508 0.479527 0.548866
56 1 0.816753 0.378419 0.598814
466 1 0.514334 0.293865 0.473319
218 5 0.599382 0.368255 0.472168
1052 5 0.699666 0.311815 0.480611
1168 5 0.73559 0.420005 0.493632
546 2 0.600342 0.294537 0.442624
721 5 0.629903 0.37333 0.408811
593 3 0.652467 0.481656 0.455511
433 1 0.720341 0.339973 0.447555
312 1 0.649327 0.282548 0.428391
1004 2 0.748607 0.395525 0.453682
44 2 0.711716 0.295692 0.432514
57 1 0.625247 0.280896 0.461728
37 1 0.733814 0.327899 0.414698
669 1 0.70278 0.435666 0.461151
767 1 0.587046 0.469777 0.463329
586 1 0.581126 0.355193 0.440686
536 1 0.508183 0.455136 0.438108
1133 1 0.552858 0.253057 0.436919
863 2 0.52314 0.469076 0.458253
1091 1 0.784368 0.37369 0.470849
761 3 0.846414 0.369843 0.482181
476 5 0.91219 0.265778 0.477483
357 2 0.893581 0.483646 0.496361
263 1 0.897535 0.356644 0.468007
1138 1 0.954364 0.463603 0.4955
735 1 0.85613 0.433997 0.490923
636 1 0.878357 0.479734 0.432431
674 1 0.820851 0.446705 0.405196
64 2 0.817709 0.465841 0.426226
972 1 0.889838 0.450801 0.59439
131 1 0.943619 0.326742 0.404122
1021 5 0.826766 0.274157 0.445939
1190 5 0.938513 0.413974 0.413427
1035 5 0.922713 0.429555 0.452948
103 1 0.784379 0.422284 0.438362
672 1 0.746529 0.242195 0.434577
1121 2 0.56596 0.142122 0.527376
1109 1 0.50412 0.152837 0.523526
164 1 0.590016 0.0891292 0.518649
73 2 0.590032 0.262905 0.523803
58 1 0.694515 0.0967513 0.516225
901 2 0.641424 0.0805517 0.504928
304 1 0.598315 0.196941 0.522821
1041 1 0.568687 0.132699 0.549273
936 1 0.71736 0.0361349 0.59075
1139 1 0.654264 0.0919113 0.567691
53 1 0.701686 0.142222 0.593452
626 2 0.611007 0.140881 0.565345
210 5 0.739613 0.0502557 0.541344
339 2 0.707121 0.0908651 0.580801
43 5 0.702962 0.201207 0.530729
369 1 0.641781 0.196339 0.56073
971 1 0.691827 0.247025 0.591838
976 5 0.503622 0.378109 0.409878
830 1 0.577841 0.150163 0.584121
350 2 0.559085 0.029645 0.589213
250 2 0.535444 0.178498 0.597667
1195 1 0.503729 0.0635819 0.589246
604 5 0.981801 0.255403 0.426975
1154 5 0.788 0.104527 0.510198
515 5 0.892398 0.0827087 0.520615
408 1 0.984464 0.0980933 0.529187
384 5 0.892149 0.216379 0.52133
224 1 0.816433 0.0236939 0.522355
687 1 0.502716 0.0819496 0.492403
1198 1 0.81167 0.184217 0.552754
157 1 0.920635 0.0407604 0.579415
746 1 0.99892 0.162252 0.415727
1005 1 0.854972 0.0861024 0.55784
332 1 0.969603 0.127175 0.562787
1187 2 0.889841 0.0302619 0.561052
809 2 0.98565 0.134116 0.583627
152 1 0.618161 0.371565 0.595871
118 2 0.81679 0.133332 0.565566
147 1 0.922332 0.0148081 0.543608
570 1 0.934266 0.159255 0.595197
200 2 0.99861 0.140775 0.543876
273 1 0.828137 0.154476 0.586185
228 1 0.758032 0.103936 0.567874
895 1 0.531367 0.392574 0.499163
427 2 0.587821 0.404767 0.509379
736 5 0.825128 0.043993 0.596395
509 1 0.57638 0.387518 0.5298
878 1 0.560907 0.277489 0.504644
924 1 0.599221 0.467938 0.507238
612 1 0.748374 0.328557 0.512225
235 1 0.647864 0.292868 0.525404
279 1 0.642334 0.374195 0.502936
899 1 0.729993 0.493431 0.51298
948 3 0.685594 0.347602 0.519931
431 2 0.691255 0.474055 0.582537
379 2 0.721652 0.466264 0.531918
720 1 0.734563 0.263641 0.5584
890 1 0.739013 0.439413 0.59137
831 2 0.621446 0.377602 0.574214
98 1 0.734907 0.334451 0.582757
203 2 0.697744 0.285358 0.574474
716 1 0.702551 0.404054 0.531448
391 1 0.661314 0.428512 0.570319
351 1 0.646594 0.320112 0.569884
944 1 0.647629 0.491419 0.598201
770 1 0.512269 0.0167108 0.454947
1119 3 0.541262 0.414783 0.547253
1056 1 0.544381 0.270559 0.538738
850 1 0.562603 0.386169 0.566786
1081 5 0.571222 0.25578 0.569151
1163 1 0.82864 0.0926744 0.400014
884 1 0.819072 0.279913 0.532269
843 5 0.922241 0.402123 0.521805
488 1 0.981546 0.299529 0.521456
825 2 0.810833 0.330301 0.519477
133 1 0.843636 0.328761 0.501023
18 1 0.801401 0.398896 0.565905
982 3 0.799394 0.252454 0.552713
1102 1 0.883257 0.450863 0.551026
769 1 0.836339 0.277784 0.570883
291 1 0.902163 0.353314 0.583675
1158 1 0.922821 0.261707 0.590494
623 1 0.987991 0.460307 0.568881
1100 2 0.825774 0.426641 0.547467
946 1 0.933366 0.287439 0.555868
1080 2 0.881709 0.390628 0.599773
742 2 0.898593 0.295246 0.573628
266 1 0.981528 0.467179 0.533292
529 1 0.825179 0.384455 0.531651
530 3 0.944296 0.4818 0.552209
737 2 0.769792 0.385771 0.584132
189 1 0.776359 0.470383 0.544332
1044 1 0.57555 0.0142026 0.568817
677 1 0.982009 0.200865 0.53849
172 1 0.66951 0.496263 0.540696
664 1 0.652337 0.491827 0.432514
297 1 0.839141 0.321931 0.406004
1077 3 0.500106 0.493236 0.419108
1175 1 0.583722 0.152832 0.401023
498 1 0.993136 0.414367 0.599781
557 2 0.500556 0.242215 0.424835
467 2 0.892704 0.289153 0.40049
794 1 0.956437 0.00180617 0.507999
493 5 0.931947 0.116528 0.400416
300 2 0.576646 0.193529 0.649227
1043 1 0.634445 0.207187 0.655381
788 1 0.73135 0.174846 0.65203
354 2 0.706843 0.195923 0.604474
441 2 0.63547 0.0268755 0.618838
748 1 0.670195 0.204185 0.622907
875 1 0.608617 0.051042 0.601157
1152 1 0.677949 0.0589714 0.629911
122 5 0.696182 0.0881068 0.665053
600 1 0.564948 0.499385 0.620531
656 2 0.689798 0.217154 0.644162
355 1 0.71409 0.387092 0.651424
539 1 0.543163 0.140687 0.648963
1025 1 0.527151 0.14434 0.61578
240 1 0.553995 0.240512 0.603324
601 1 0.552372 0.240092 0.637546
524 1 0.504894 0.324049 0.622351
430 5 0.808204 0.286658 0.604345
932 1 0.818282 0.0311075 0.660368
194 5 0.945124 0.0285198 0.694176
1182 5 0.921862 0.254272 0.661119
33 5 0.89954 0.0865977 0.64851
383 1 0.948479 0.169813 0.651884
93 1 0.974124 0.219061 0.620493
481 1 0.584434 0.0105317 0.631665
666 1 0.867914 0.214678 0.614474
136 5 0.992289 0.332547 0.617294
975 5 0.923577 0.048529 0.614469
335 1 0.839118 0.112355 0.617766
292 2 0.827011 0.167913 0.60791
1151 1 0.769515 0.196546 0.610296
448 5 0.768447 0.090985 0.642132
223 1 0.606766 0.410334 0.63003
933 2 0.634315 0.365362 0.616795
642 2 0.708628 0.449051 0.655011
527 1 0.698309 0.353924 0.621306
1140 2 0.99244 0.177528 0.63645
457 2 0.733252 0.336068 0.638274
771 1 0.712933 0.277646 0.643611
1040 1 0.887215 0.344932 0.655104
1130 2 0.550818 0.446685 0.633527
641 1 0.536353 0.455232 0.653385
463 2 0.55061 0.27945 0.620426
1009 1 0.608465 0.308404 0.622053
507 2 0.927813 0.215412 0.605631
193 1 0.500815 0.426735 0.620919
471 1 0.667018 0.493378 0.661355