ITEM: TIMESTEP
2300
ITEM: NUMBER OF ATOMS
1200
ITEM: BOX BOUNDS pp pp pp
-7.6266250050336382e-02 2.5098596345622489e+01
-7.6266250050336382e-02 2.5098596345622489e+01
-2.5251128845723162e+01 5.0273458941295317e+01
ITEM: ATOMS id type xs ys zs
760 1 0.0713262 0.144202 0.391227
419 1 0.228036 0.156419 0.371201
108 1 0.224016 0.0518111 0.359385
96 1 0.0273053 0.0503568 0.386244
1076 1 0.182547 0.116911 0.339019
1193 1 0.106318 0.0842473 0.363927
580 5 0.170815 0.216795 0.351709
269 2 0.0275572 0.224436 0.339942
638 5 0.144308 0.161885 0.311703
390 2 0.0829244 0.0820049 0.383416
645 3 0.158522 0.0616105 0.351432
967 1 0.079045 0.205732 0.329793
542 1 0.129606 0.0605213 0.396535
804 1 0.227141 0.0107796 0.391231
1149 3 0.237406 0.119239 0.352361
660 1 0.267106 0.258965 0.35149
1146 5 0.00453696 0.238882 0.381814
992 5 0.0464948 0.0783947 0.340158
635 5 0.326731 0.228743 0.330768
787 1 0.397843 0.247424 0.351192
314 1 0.452269 0.179282 0.388848
590 2 0.483661 0.235525 0.386263
559 1 0.432138 0.0256962 0.357634
973 5 0.388264 0.119595 0.343104
468 2 0.397147 0.145537 0.393111
1174 1 0.297658 0.12904 0.342877
1037 1 0.386858 0.101914 0.37768
432 5 0.317896 0.187901 0.365372
196 2 0.38817 0.0387551 0.372912
465 1 0.330007 0.0171587 0.369243
907 1 0.410222 0.0092544 0.390568
793 3 0.26048 0.00320591 0.370008
929 1 0.487358 0.242902 0.335802
628 1 0.397354 0.324112 0.332606
151 1 0.381223 0.353311 0.367662
309 5 0.266494 0.122688 0.399806
26 5 0.201919 0.423617 0.336266
577 2 0.0867581 0.470394 0.366987
82 1 0.194559 0.333977 0.344798
382 5 0.21336 0.206564 0.399016
40 5 0.101289 0.323478 0.333632
813 1 0.0278709 0.451633 0.372954
403 5 0.149543 0.362692 0.374636
834 1 0.130728 0.47252 0.382626
418 1 0.033651 0.274245 0.352006
915 1 0.108289 0.42301 0.352736
904 5 0.025109 0.356985 0.366212
290 1 0.351867 0.190428 0.395201
1071 1 0.251251 0.333204 0.375256
456 1 0.479057 0.331893 0.351096
917 2 0.442897 0.489807 0.392442
935 2 0.441996 0.284824 0.341853
893 5 0.322002 0.27416 0.379857
460 1 0.380478 0.424 0.343321
1053 1 0.299644 0.354435 0.345204
565 5 0.303834 0.415477 0.385182
346 2 0.251316 0.320971 0.354053
703 2 0.417863 0.46455 0.355405
241 1 0.443247 0.284357 0.384266
373 1 0.408871 0.459179 0.376876
1171 1 0.479665 0.447292 0.352169
409 1 0.479222 0.378831 0.382087
1159 2 0.423947 0.343992 0.384469
412 2 0.36155 0.361653 0.346133
533 1 0.151534 0.281287 0.39884
397 2 0.0281059 0.218188 0.472632
885 5 0.183446 0.219496 0.473836
1185 5 0.116579 0.150716 0.485617
88 1 0.0172497 0.159973 0.48102
28 1 0.206704 0.112946 0.491608
62 5 0.234756 0.0303156 0.447085
953 5 0.0839679 0.017887 0.429605
1060 5 0.155079 0.208891 0.439191
137 5 0.159976 0.111552 0.440913
377 2 0.0508352 0.167665 0.410345
537 1 0.207061 0.0639336 0.419768
15 5 0.0600426 0.0702602 0.468113
353 1 0.0633029 0.233177 0.411338
1024 1 0.0805719 0.136254 0.426064
1070 2 0.180448 0.0268349 0.404845
20 1 0.141545 0.0238325 0.455617
1017 1 0.0894404 0.22726 0.467117
208 1 0.218294 0.495486 0.441588
472 1 0.252357 0.0254217 0.478962
75 1 0.309982 0.101428 0.495759
375 2 0.261081 0.0865544 0.482805
206 1 0.257752 0.228301 0.491744
407 1 0.48361 0.218871 0.494953
247 5 0.390432 0.103013 0.469486
378 2 0.453684 0.0280066 0.447615
516 1 0.451124 0.0917796 0.445982
406 1 0.459441 0.187234 0.430377
91 1 0.406415 0.118081 0.412631
920 2 0.451548 0.124211 0.427028
851 1 0.40849 0.498416 0.453756
858 1 0.254543 0.16766 0.431851
443 2 0.29326 0.13337 0.444442
14 1 0.310571 0.0770421 0.436041
968 1 0.268033 0.119403 0.463977
72 1 0.345564 0.171169 0.447403
922 5 0.336419 0.216957 0.475701
1194 5 0.312687 0.427326 0.560503
556 1 0.17801 0.48738 0.598345
86 1 0.40502 0.00637647 0.460194
779 5 0.137351 0.448018 0.47712
242 1 0.0156004 0.264099 0.488422
754 1 0.0261645 0.451843 0.470918
78 5 0.14101 0.299077 0.481424
663 1 0.117523 0.364636 0.461377
1079 5 0.240121 0.435504 0.416175
435 1 0.193656 0.29151 0.451644
871 3 0.0103828 0.434291 0.492757
130 5 0.0180655 0.348412 0.575681
827 1 0.109138 0.305249 0.430974
689 2 0.150217 0.337069 0.445179
722 1 0.0957324 0.472145 0.442563
1128 2 0.0348186 0.456944 0.4491
249 2 0.0981547 0.29075 0.40995
265 1 0.180017 0.382502 0.433659
741 5 0.0888595 0.413295 0.415607
188 5 0.246131 0.306026 0.406848
364 1 0.0175019 0.367515 0.496011
1039 5 0.258681 0.381582 0.452384
322 5 0.368723 0.246228 0.425168
32 5 0.274221 0.254301 0.444678
557 2 0.493382 0.24227 0.426554
1105 1 0.332128 0.350275 0.534567
34 1 0.240404 0.427952 0.479245
998 1 0.393491 0.356319 0.403083
102 5 0.49194 0.365461 0.446975
1078 1 0.385033 0.410584 0.470819
564 2 0.381656 0.366912 0.487137
139 5 0.263253 0.333164 0.488582
547 1 0.312933 0.487569 0.498323
561 1 0.350309 0.314623 0.480345
256 2 0.260238 0.484789 0.486431
447 2 0.484981 0.406327 0.491623
4 1 0.443876 0.356653 0.492153
204 1 0.453275 0.456829 0.499875
608 1 0.460744 0.462439 0.410824
696 5 0.434399 0.257749 0.462399
996 1 0.450996 0.290029 0.429376
109 1 0.320921 0.335282 0.427892
694 1 0.315731 0.459016 0.448154
494 2 0.36522 0.37716 0.420785
308 1 0.398551 0.400499 0.437434
633 1 0.334477 0.432761 0.413438
410 2 0.377835 0.441646 0.451589
69 2 0.214506 0.209769 0.596754
640 1 0.0464899 0.009938 0.567956
550 1 0.130949 0.122105 0.517071
574 5 0.0300058 0.0989822 0.507404
1155 1 0.149875 0.229057 0.504428
520 2 0.193396 0.120535 0.512982
811 1 0.21546 0.0637809 0.521154
643 1 0.232158 0.167218 0.520685
785 1 0.111823 0.0782647 0.583925
857 1 0.212574 0.0628177 0.578335
114 2 0.244342 0.019147 0.590348
1089 1 0.00903243 0.0793123 0.590788
1006 1 0.0553065 0.141396 0.542137
738 3 0.0849872 0.219568 0.590037
647 2 0.164629 0.107941 0.575233
192 1 0.160614 0.117668 0.554119
632 1 0.0348194 0.176737 0.582546
897 2 0.0585142 0.0426975 0.586051
826 3 0.112387 0.105577 0.537841
680 1 0.0968411 0.0346905 0.53904
548 1 0.184356 0.160406 0.586573
803 5 0.210598 0.19489 0.550625
219 1 0.118712 0.234028 0.570577
296 1 0.0584431 0.0150827 0.495501
861 1 0.477723 0.499796 0.597195
991 5 0.333082 0.116471 0.594549
10 1 0.261248 0.229376 0.583664
23 1 0.36049 0.0895689 0.526583
298 2 0.269589 0.215611 0.512168
101 1 0.326954 0.184416 0.512924
854 2 0.353858 0.127138 0.509753
470 2 0.456935 0.181618 0.510319
413 1 0.430981 0.223243 0.524438
684 1 0.484596 0.0186246 0.523855
833 1 0.413152 0.141102 0.501524
81 1 0.41579 0.0353419 0.586862
961 2 0.448587 0.0921628 0.585642
900 3 0.427122 0.224727 0.589435
945 5 0.47594 0.198014 0.553573
42 1 0.489721 0.197592 0.58584
1161 1 0.436933 0.115203 0.565832
1066 5 0.382992 0.159423 0.544889
596 1 0.296026 0.16309 0.560183
1199 2 0.31035 0.218065 0.570609
220 1 0.306625 0.0173445 0.585201
646 5 0.263951 0.0796628 0.550732
837 5 0.363369 0.0553375 0.558353
438 1 0.363988 0.206351 0.582349
392 1 0.0104447 0.402819 0.440783
930 2 0.49579 0.0191347 0.502754
1059 1 0.00217501 0.472321 0.405406
1117 5 0.118032 0.360764 0.592052
518 1 0.0506435 0.276928 0.59746
1001 2 0.145669 0.281768 0.516055
92 1 0.0861404 0.308868 0.511978
916 1 0.049543 0.473147 0.506707
605 1 0.186472 0.326233 0.509477
424 2 0.0259078 0.309607 0.504446
798 5 0.195609 0.424218 0.509595
317 3 0.227084 0.469655 0.582131
611 1 0.239679 0.33889 0.549474
215 1 0.202823 0.422171 0.566511
367 5 0.0485499 0.387629 0.531096
366 1 0.051945 0.296807 0.55025
759 1 0.145695 0.333818 0.564185
231 2 0.114518 0.280707 0.555468
153 1 0.148133 0.266702 0.537836
127 1 0.149172 0.398906 0.537738
352 1 0.0694037 0.475265 0.590702
174 2 0.186566 0.374099 0.553025
439 5 0.097919 0.463964 0.55515
105 2 0.289589 0.305335 0.541238
342 5 0.158622 0.494188 0.535408
372 1 0.354505 0.325634 0.591595
706 1 0.431243 0.49067 0.563295
977 1 0.271206 0.265509 0.525476
535 1 0.280611 0.43972 0.529404
227 1 0.436878 0.282457 0.575063
340 1 0.373037 0.478392 0.593724
966 1 0.377833 0.449154 0.535437
784 2 0.436673 0.462043 0.543557
348 5 0.497011 0.317789 0.555468
303 1 0.481595 0.414262 0.541751
558 5 0.256704 0.336137 0.593834
100 2 0.336193 0.41091 0.524401
1013 1 0.359228 0.393383 0.505442
652 5 0.405851 0.289223 0.54562
1099 1 0.403516 0.377493 0.56458
344 1 0.454276 0.362786 0.595467
812 2 0.409518 0.338665 0.58139
1118 1 0.277305 0.434975 0.593673
943 5 0.485342 0.315079 0.516932
1057 1 0.314865 0.265867 0.556284
479 1 0.445921 0.0083358 0.426762
604 5 0.00710909 0.276442 0.429839
786 2 0.00196996 0.46794 0.590101
1173 1 0.0626174 0.334895 0.400591
395 5 0.342178 0.00152169 0.516557
211 5 0.314933 0.00158472 0.40552
1131 5 0.210649 0.0102831 0.673619
142 1 0.18013 0.121758 0.673816
711 5 0.133185 0.0261968 0.628164
700 1 0.145044 0.15442 0.640824
359 1 0.21431 0.0720796 0.644162
1126 1 0.10689 0.194142 0.610467
47 2 0.112845 0.204002 0.631296
94 1 0.0517492 0.214499 0.638988
230 2 0.193266 0.129665 0.653109
986 1 0.236791 0.0371692 0.610977
1108 5 0.0258192 0.0475528 0.628219
956 1 0.344037 0.432462 0.622657
123 1 0.244377 0.168567 0.648036
610 1 0.242291 0.18491 0.614374
1094 2 0.261132 0.0500871 0.630735
1072 1 0.43883 0.172504 0.636535
753 1 0.479278 0.0668273 0.633192
209 1 0.42816 0.241185 0.611451
255 1 0.340214 0.20252 0.628646
365 1 0.29566 0.105871 0.627871
111 2 0.402616 0.222934 0.630382
651 2 0.284187 0.170993 0.630707
415 1 0.423791 0.125239 0.601729
1042 2 0.488029 0.131068 0.63351
1103 2 0.466997 0.00655968 0.639249
909 5 0.0795673 0.311398 0.662684
50 5 0.0830959 0.483495 0.651068
1085 2 0.116638 0.494771 0.60443
458 1 0.146479 0.258934 0.634749
51 1 0.165845 0.432759 0.648357
343 1 0.244237 0.300188 0.628261
1114 2 0.181902 0.296771 0.622427
1145 1 0.0746962 0.383264 0.64325
870 1 0.154876 0.356762 0.623392
631 1 0.108269 0.452832 0.620811
1069 2 0.12655 0.406408 0.633889
639 5 0.234894 0.497051 0.661795
551 1 0.184655 0.267413 0.602801
931 1 0.300506 0.00636677 0.63852
202 5 0.462977 0.353402 0.65719
1150 1 0.449266 0.41734 0.626088
525 2 0.486244 0.384089 0.612826
607 2 0.320146 0.46636 0.60559
1183 5 0.304884 0.34626 0.654274
1000 1 0.381013 0.415068 0.65398
71 2 0.395182 0.44086 0.635708
999 1 0.404689 0.269521 0.645459
31 5 0.335717 0.311418 0.621427
370 1 0.0855108 0.530691 0.360627
388 1 0.23902 0.726578 0.388387
1136 1 0.160818 0.743545 0.365066
1101 1 0.159707 0.578597 0.384348
763 1 0.0552992 0.753539 0.364301
708 1 0.100344 0.656023 0.368229
85 1 0.0420585 0.580423 0.387715
839 2 0.104276 0.720663 0.372912
572 2 0.168299 0.519641 0.393396
1144 3 0.0973875 0.588036 0.374285
1135 1 0.107328 0.724185 0.394385
429 5 0.228033 0.634881 0.376469
422 5 0.0192805 0.680819 0.347769
919 1 0.408571 0.541121 0.398536
734 5 0.330875 0.697144 0.376144
1033 1 0.401682 0.637185 0.340993
1064 1 0.48179 0.591163 0.359193
918 1 0.404974 0.52786 0.351018
715 2 0.41824 0.591293 0.355225
579 1 0.382304 0.598021 0.373135
124 2 0.391992 0.604319 0.394311
9 1 0.491719 0.51754 0.382994
176 5 0.303721 0.655868 0.331179
697 5 0.369298 0.914691 0.373474
84 3 0.228759 0.757894 0.368513
1122 1 0.245666 0.938642 0.362435
1088 2 0.211234 0.889392 0.36854
286 1 0.236777 0.829669 0.366344
797 1 0.191811 0.896619 0.390089
89 1 0.153935 0.892661 0.358683
416 1 0.0492302 0.925278 0.35376
6 5 0.0494891 0.851294 0.373453
519 2 0.110269 0.943329 0.358134
747 1 0.110237 0.951198 0.38045
52 5 0.352824 0.825716 0.385916
758 1 0.443427 0.868545 0.384741
750 5 0.199928 0.775873 0.337879
762 1 0.132833 0.995288 0.347794
679 1 0.292226 0.910602 0.392719
404 1 0.266274 0.71758 0.353536
598 1 0.445391 0.640456 0.395342
624 3 0.49548 0.995788 0.354347
914 1 0.497461 0.951517 0.398127
815 2 0.133977 0.92175 0.398424
1186 1 0.494644 0.930706 0.362985
634 2 0.497864 0.905477 0.382926
853 5 0.0327776 0.794963 0.399973
575 1 0.228525 0.500565 0.391238
1007 1 0.183803 0.602184 0.480586
12 5 0.0811419 0.739491 0.47395
1157 1 0.0942146 0.647256 0.466725
531 1 0.224002 0.733634 0.427819
620 2 0.205788 0.672728 0.431206
135 1 0.190829 0.663002 0.451714
1058 1 0.151941 0.665164 0.419412
670 1 0.144267 0.568574 0.449966
444 1 0.151871 0.522621 0.414256
994 5 0.023441 0.6065 0.441582
446 1 0.0441093 0.674494 0.414067
1137 2 0.104284 0.7028 0.414229
1169 2 0.151465 0.62087 0.462854
1112 3 0.209816 0.578647 0.500626
739 5 0.0473563 0.545626 0.417055
45 1 0.209551 0.511196 0.497708
445 3 0.151909 0.509789 0.437337
718 1 0.25247 0.634186 0.424097
1083 1 0.336577 0.627769 0.476951
213 5 0.363285 0.539125 0.479509
1002 1 0.268709 0.524969 0.46925
1018 2 0.308546 0.642443 0.495985
349 1 0.263711 0.689081 0.49481
749 1 0.396661 0.706091 0.467735
554 5 0.444184 0.662087 0.494502
238 1 0.483326 0.557092 0.431039
501 5 0.477257 0.65454 0.434513
499 1 0.423476 0.72551 0.424476
528 1 0.418722 0.607293 0.457511
1049 3 0.453588 0.549128 0.451268
1031 1 0.339715 0.653572 0.442221
789 1 0.30613 0.556291 0.437662
562 1 0.325229 0.730308 0.409532
847 1 0.346035 0.613533 0.409459
911 2 0.311362 0.614774 0.427798
740 2 0.275952 0.509437 0.448736
1038 2 0.372176 0.651163 0.460319
398 5 0.00767241 0.670339 0.460445
387 1 0.426966 0.565419 0.502347
97 5 0.0198498 0.540702 0.48238
844 2 0.239653 0.746285 0.4886
11 1 0.175542 0.747942 0.491572
637 1 0.153066 0.970932 0.411039
426 1 0.0696187 0.859838 0.471019
1087 1 0.132744 0.953709 0.481972
167 5 0.143075 0.853401 0.489095
374 1 0.249224 0.891102 0.486411
705 2 0.232852 0.903197 0.446053
603 1 0.237038 0.906444 0.424337
475 5 0.0305057 0.901545 0.431724
823 5 0.170096 0.757643 0.456292
180 5 0.107137 0.846908 0.43913
35 1 0.0974239 0.747092 0.429663
594 1 0.170096 0.918546 0.451089
988 2 0.127668 0.961949 0.460517
685 2 0.0208931 0.5091 0.521651
892 1 0.064498 0.95823 0.454015
997 5 0.0138545 0.78107 0.44551
334 1 0.0914252 0.877231 0.404056
70 2 0.0123679 0.876417 0.479728
183 2 0.243907 0.885488 0.404412
386 1 0.25461 0.82234 0.405136
170 1 0.025203 0.971536 0.408416
985 5 0.309396 0.513621 0.400492
877 1 0.441833 0.988862 0.494085
1197 2 0.44801 0.74655 0.470216
1156 3 0.261016 0.752177 0.409059
941 1 0.342139 0.966903 0.485404
764 1 0.33622 0.81842 0.472278
881 1 0.255892 0.756563 0.467965
1015 3 0.272257 0.958562 0.483452
294 1 0.421617 0.908204 0.473739
293 1 0.456351 0.762003 0.490532
1062 5 0.468441 0.785656 0.401014
874 2 0.402691 0.968646 0.478286
140 1 0.380168 0.816418 0.416053
699 1 0.389745 0.928415 0.414734
958 3 0.391548 0.851906 0.464614
325 1 0.437545 0.80016 0.458727
277 1 0.465788 0.867581 0.426765
898 3 0.438468 0.971918 0.40727
356 2 0.40281 0.871972 0.425097
1034 1 0.372159 0.875297 0.444096
226 1 0.272235 0.945052 0.455193
138 1 0.331808 0.770334 0.441522
513 2 0.2954 0.797834 0.45707
980 5 0.340621 0.990403 0.439118
144 2 0.366994 0.757304 0.423871
942 1 0.254434 0.843904 0.450007
1189 5 0.152578 0.692915 0.522676
549 1 0.0588872 0.66678 0.528612
1147 5 0.0957835 0.611051 0.503114
665 2 0.0139233 0.710531 0.527329
657 1 0.18182 0.59304 0.520478
655 5 0.250991 0.653969 0.532769
120 1 0.22029 0.605928 0.563423
910 5 0.12 0.610219 0.544585
182 1 0.142991 0.54232 0.570752
39 1 0.0669994 0.526807 0.53589
616 1 0.0248846 0.640769 0.574272
506 1 0.133281 0.641438 0.579993
1142 5 0.0330042 0.552169 0.566678
820 2 0.0742344 0.667664 0.584217
751 1 0.161516 0.731516 0.551364
145 1 0.081951 0.725921 0.57471
1061 2 0.175775 0.594392 0.578539
544 1 0.210963 0.591854 0.597028
7 1 0.0112945 0.737224 0.507217
886 5 0.250138 0.708063 0.565199
173 1 0.00220882 0.51134 0.443949
545 2 0.208844 0.99821 0.521876
305 1 0.49459 0.710604 0.461642
618 5 0.258884 0.523564 0.526725
307 2 0.375577 0.698898 0.52661
678 1 0.352735 0.660129 0.510516
568 5 0.34932 0.548529 0.520661
168 1 0.276194 0.593245 0.504103
978 2 0.464412 0.517609 0.508159
581 1 0.424007 0.668762 0.53652
902 1 0.41195 0.670519 0.570464
181 1 0.41295 0.570603 0.585782
1170 2 0.444198 0.699138 0.554848
541 5 0.402854 0.582245 0.551147
281 1 0.311885 0.578632 0.547188
79 1 0.326693 0.708565 0.540345
1 1 0.311772 0.61809 0.579616
143 1 0.269793 0.520266 0.572844
1028 3 0.377949 0.6287 0.58566
534 2 0.280137 0.581481 0.565564
268 1 0.457323 0.510219 0.53026
952 2 0.424609 0.505829 0.5846
474 1 0.151061 0.985469 0.513151
862 1 0.00196932 0.980383 0.538464
361 5 0.0010016 0.609436 0.542094
490 5 0.108654 0.833741 0.525289
1050 1 0.0765034 0.916122 0.511072
1180 5 0.370027 0.744269 0.59005
576 2 0.101169 0.968065 0.500926
246 1 0.204945 0.860399 0.517302
702 1 0.0235273 0.763696 0.540206
1116 1 0.224847 0.956298 0.59011
1141 1 0.219161 0.983671 0.542437
262 1 0.164977 0.768537 0.585894
727 3 0.0783329 0.877329 0.566177
860 2 0.0584022 0.989061 0.547558
451 5 0.161112 0.965315 0.566352
405 1 0.0986027 0.908092 0.585641
765 1 0.116797 0.821543 0.559861
399 5 0.1844 0.888014 0.545874
376 1 0.0855728 0.930402 0.551156
482 1 0.0164183 0.850021 0.563281
567 2 0.131519 0.763285 0.567336
221 2 0.295552 0.831852 0.579399
310 5 0.292644 0.9345 0.550318
434 1 0.262935 0.795444 0.500204
234 3 0.367084 0.987884 0.591139
592 1 0.375946 0.837472 0.538375
283 1 0.399795 0.75026 0.51729
1023 1 0.293826 0.872756 0.595823
841 5 0.245601 0.77841 0.534943
816 1 0.256615 0.848404 0.563355
1115 1 0.277319 0.773302 0.586999
1113 1 0.492521 0.803691 0.522658
1011 2 0.257405 0.858561 0.504997
1184 1 0.312615 0.877402 0.514827
495 1 0.397767 0.933373 0.527743
1093 2 0.37376 0.875998 0.52143
41 1 0.256193 0.973703 0.509502
511 1 0.413751 0.84848 0.506955
83 2 0.442841 0.791945 0.508682
368 2 0.401544 0.817934 0.557349
414 1 0.459246 0.967263 0.555877
719 3 0.46163 0.958538 0.532273
1095 1 0.461868 0.771953 0.59167
315 1 0.426604 0.760261 0.554183
484 1 0.440354 0.866072 0.562876
450 2 0.43247 0.926526 0.569829
360 1 0.45025 0.92409 0.5913
731 1 0.354625 0.820544 0.572157
905 1 0.369783 0.940617 0.571987
913 5 0.0964259 0.639892 0.66732
68 1 0.215758 0.566825 0.631539
852 2 0.244759 0.704693 0.664255
329 1 0.222358 0.654868 0.651697
950 2 0.1846 0.607162 0.644938
1166 1 0.208876 0.706102 0.682393
627 1 0.025127 0.57234 0.667555
819 1 0.0703633 0.656549 0.605865
609 2 0.08573 0.613643 0.62157
704 1 0.165412 0.575826 0.662368
891 1 0.103398 0.556414 0.61087
455 1 0.135892 0.629702 0.633619
955 1 0.0357441 0.604387 0.634917
393 5 0.113469 0.552814 0.686325
521 1 0.195604 0.858432 0.603613
99 2 0.495325 0.930646 0.606474
459 1 0.0422368 0.717143 0.668789
440 5 0.239121 0.694126 0.602623
54 1 0.402471 0.507689 0.63822
483 1 0.468047 0.57623 0.623733
1008 1 0.417217 0.736045 0.654291
1191 1 0.486829 0.755487 0.625655
1074 2 0.423639 0.569696 0.639083
106 1 0.451452 0.580952 0.657812
119 1 0.37081 0.662913 0.606321
125 1 0.309777 0.703768 0.668917
1125 2 0.252007 0.574277 0.613234
186 2 0.351729 0.736567 0.655471
923 1 0.287807 0.627034 0.618887
733 1 0.292335 0.52297 0.610949
927 1 0.331625 0.711097 0.635987
363 1 0.376672 0.613915 0.636832
129 2 0.343361 0.656877 0.625356
1111 1 0.070549 0.998679 0.601535
710 1 0.231709 0.760236 0.65443
1020 1 0.0399404 0.74885 0.635932
937 3 0.221215 0.922041 0.644454
442 2 0.240649 0.903808 0.603106
1167 2 0.226169 0.804907 0.638535
588 1 0.198194 0.774597 0.622034
653 1 0.24314 0.929159 0.62313
80 1 0.186777 0.856578 0.641838
712 1 0.104922 0.804656 0.613494
1067 2 0.165516 0.802573 0.605151
502 2 0.0107091 0.862128 0.647623
802 2 0.0429445 0.786823 0.618393
244 3 0.127275 0.901131 0.642674
324 1 0.162519 0.956537 0.647235
1124 2 0.0687253 0.93216 0.603522
1003 1 0.0717865 0.874754 0.652608
60 1 0.0994599 0.920717 0.621816
345 1 0.0115056 0.837137 0.627175
104 5 0.116196 0.772144 0.675215
1046 1 0.00688375 0.917209 0.600517
838 1 0.477649 0.963724 0.623996
437 5 0.273885 0.668916 0.70504
908 1 0.351702 0.907075 0.641531
1065 2 0.00419367 0.747324 0.653976
132 1 0.340959 0.797548 0.660381
867 5 0.396831 0.844626 0.602607
491 2 0.452051 0.778853 0.642149
1123 1 0.359479 0.971673 0.613386
205 5 0.343057 0.90635 0.676124
177 3 0.344971 0.838309 0.641226
217 1 0.284821 0.824842 0.632545
960 1 0.255315 0.921949 0.663788
1110 2 0.353358 0.968675 0.634784
236 1 0.0107875 0.765495 0.601155
1106 1 0.403448 0.81253 0.632441
338 1 0.487873 0.81846 0.653254
1014 1 0.402517 0.99999 0.644143
285 1 0.695658 0.157193 0.393575
725 1 0.641947 0.0629704 0.370672
464 1 0.701757 0.126265 0.346498
1178 2 0.716169 0.201133 0.380607
1092 2 0.696321 0.0718097 0.358637
810 1 0.750178 0.0675814 0.370559
1016 5 0.596874 0.147133 0.373362
321 1 0.544594 0.0239065 0.367383
934 1 0.523376 0.231644 0.369376
1148 2 0.59649 0.0207738 0.380466
947 2 0.875947 0.283265 0.362651
328 2 0.535963 0.217963 0.348005
688 1 0.703799 0.236574 0.339333
299 1 0.915902 0.333199 0.360201
984 1 0.663437 0.221572 0.369317
121 5 0.581081 0.0721166 0.34018
267 1 0.594146 0.245295 0.344028
903 1 0.692954 0.0196348 0.34509
385 5 0.755193 0.0159181 0.317334
757 1 0.546427 0.154168 0.34497
585 3 0.743573 0.181464 0.343908
16 2 0.653823 0.257254 0.351721
1200 1 0.831238 0.399428 0.373139
1096 1 0.732686 0.249715 0.393737
686 2 0.979594 0.469008 0.385656
1026 1 0.762249 0.188246 0.366856
1073 2 0.814467 0.0646877 0.373828
818 2 0.84258 0.114364 0.335224
330 1 0.90278 0.142891 0.332753
540 5 0.885336 0.165892 0.382325
436 1 0.903537 0.439732 0.347472
288 2 0.936784 0.191944 0.339745
1068 1 0.799189 0.161195 0.332705
990 1 0.840811 0.0928871 0.356037
107 1 0.839317 0.0624104 0.3223
389 1 0.976037 0.226596 0.326259
1163 1 0.83032 0.0947575 0.392004
159 2 0.986028 0.00416164 0.395223
261 1 0.897779 0.235285 0.350448
835 1 0.98574 0.0106238 0.343422
921 5 0.926524 0.0103919 0.314087
614 1 0.988729 0.181438 0.352055
1032 1 0.832473 0.00313166 0.373179
799 2 0.752152 0.308543 0.398734
807 5 0.542004 0.444799 0.330684
690 3 0.508261 0.388149 0.361391
555 1 0.752024 0.392787 0.348779
497 5 0.670768 0.409918 0.334585
428 1 0.624488 0.489398 0.331603
940 1 0.600007 0.329194 0.387495
729 1 0.659137 0.318791 0.358993
396 1 0.748583 0.454295 0.384754
254 2 0.686815 0.466968 0.381047
77 1 0.65668 0.411518 0.376437
774 1 0.574047 0.38491 0.357267
1192 2 0.623516 0.361098 0.369834
676 1 0.747838 0.341227 0.381006
341 1 0.932191 0.423103 0.384163
1045 1 0.817016 0.308104 0.357954
477 5 0.939252 0.361773 0.32957
732 2 0.812194 0.446673 0.386419
692 2 0.781953 0.36055 0.363769
745 3 0.897789 0.400109 0.365175
1010 1 0.881075 0.265543 0.383933
21 5 0.891266 0.0135627 0.3486
649 1 0.662423 0.494055 0.398845
822 5 0.604364 0.24475 0.39504
1019 5 0.522207 0.124616 0.465112
1030 2 0.536122 0.251518 0.486215
146 1 0.569674 0.200633 0.479096
691 1 0.622393 0.118525 0.490076
613 2 0.628794 0.175642 0.478805
179 1 0.677684 0.206358 0.487938
469 5 0.744267 0.0326668 0.471063
783 1 0.658001 0.049148 0.45768
2 1 0.609607 0.0970122 0.431312
454 1 0.642821 0.156634 0.458653
401 5 0.740893 0.189425 0.459219
128 5 0.582434 0.0184946 0.472891
489 1 0.714019 0.110129 0.437222
864 2 0.655922 0.105192 0.446518
795 5 0.664604 0.182476 0.421374
3 2 0.570961 0.0980167 0.41374
30 1 0.505802 0.100858 0.417348
115 1 0.512127 0.241771 0.405568
770 1 0.507714 0.00654396 0.455567
1133 1 0.542408 0.249028 0.439579
687 1 0.503289 0.0730942 0.492121
1175 1 0.583462 0.152886 0.404204
478 1 0.79715 0.125021 0.472718
682 5 0.937819 0.127494 0.492263
253 5 0.868316 0.0478601 0.469162
622 2 0.8461 0.167577 0.474676
493 5 0.907598 0.119292 0.410233
116 1 0.860412 0.172097 0.495632
199 5 0.829915 0.014599 0.408303
683 1 0.987507 0.230288 0.456154
782 1 0.824539 0.225844 0.467843
582 5 0.917848 0.190418 0.436653
1179 5 0.979988 0.123353 0.450642
522 5 0.770116 0.150929 0.414624
214 1 0.866423 0.204044 0.410788
829 1 0.894867 0.146309 0.462998
95 5 0.817033 0.0944244 0.442513
394 1 0.972229 0.0339456 0.471797
746 1 0.988374 0.162861 0.412871
1077 3 0.509742 0.496729 0.42344
218 5 0.590588 0.369381 0.474294
1052 5 0.705579 0.300948 0.483543
1168 5 0.720225 0.426266 0.491644
546 2 0.593484 0.285828 0.444986
721 5 0.628896 0.388786 0.412181
593 3 0.663422 0.487178 0.454948
433 1 0.715175 0.330708 0.449566
312 1 0.644631 0.267533 0.431761
1004 2 0.74672 0.383586 0.455998
44 2 0.704661 0.291363 0.432791
57 1 0.618034 0.281626 0.464947
37 1 0.713914 0.329432 0.41501
669 1 0.703789 0.432089 0.457523
767 1 0.603131 0.475464 0.466843
586 1 0.581246 0.345914 0.438849
536 1 0.525334 0.463003 0.441714
863 2 0.539025 0.472796 0.462001
976 5 0.516068 0.373902 0.412321
466 1 0.513833 0.298005 0.473206
693 5 0.778188 0.22414 0.497364
672 1 0.745944 0.242323 0.434078
591 5 0.984395 0.375523 0.409947
1091 1 0.775318 0.37298 0.474536
761 3 0.839269 0.385232 0.480776
476 5 0.911346 0.26671 0.473238
357 2 0.891988 0.489563 0.495122
263 1 0.888053 0.359681 0.466311
1138 1 0.94377 0.450725 0.497254
735 1 0.849049 0.451861 0.484524
636 1 0.883887 0.45021 0.433551
674 1 0.82167 0.433874 0.407337
64 2 0.821269 0.438755 0.428751
131 1 0.917605 0.296762 0.415217
1021 5 0.82466 0.292576 0.443848
1190 5 0.926234 0.36396 0.436849
1035 5 0.935525 0.449179 0.461488
103 1 0.792942 0.393627 0.44108
257 3 0.991717 0.00082059 0.490658
1109 1 0.501857 0.150119 0.522277
880 1 0.507475 0.425597 0.472451
957 1 0.93352 0.0258087 0.405887
944 1 0.637642 0.498335 0.594454
297 1 0.813877 0.29909 0.407456
467 2 0.8694 0.26645 0.405258
713 1 0.644138 0.0152942 0.500315
517 5 0.691614 0.0632592 0.400979
1044 1 0.576729 0.00620433 0.568578
250 2 0.539292 0.186882 0.599153
1121 2 0.562398 0.140182 0.527025
164 1 0.588136 0.0864337 0.519367
58 1 0.693849 0.100036 0.516319
901 2 0.641507 0.0779342 0.506129
304 1 0.601976 0.189722 0.521053
1041 1 0.57084 0.13804 0.54937
936 1 0.720208 0.0396841 0.584247
1139 1 0.647653 0.0992545 0.565709
53 1 0.687972 0.136042 0.595865
626 2 0.611632 0.152725 0.565213
210 5 0.739942 0.0557307 0.541555
339 2 0.699529 0.0975778 0.578052
43 5 0.704101 0.199439 0.530127
369 1 0.651359 0.203222 0.560818
971 1 0.696231 0.23682 0.587971
830 1 0.581858 0.165821 0.58439
350 2 0.558018 0.0277838 0.588183
1195 1 0.511608 0.0723492 0.587948
190 1 0.786102 0.491404 0.434444
736 5 0.806724 0.0339717 0.593885
200 2 0.991288 0.15195 0.5425
1154 5 0.777358 0.118054 0.505041
515 5 0.873823 0.0975711 0.520441
408 1 0.961294 0.133165 0.524732
384 5 0.910771 0.212496 0.518
224 1 0.808156 0.0380338 0.518125
1198 1 0.820159 0.184347 0.547085
157 1 0.904642 0.0542766 0.578701
1005 1 0.835008 0.0855764 0.555941
332 1 0.969889 0.125723 0.561011
1187 2 0.877924 0.0393724 0.5603
809 2 0.986118 0.136036 0.581399
118 2 0.807864 0.140263 0.561918
147 1 0.913488 0.0284586 0.542621
570 1 0.937413 0.168037 0.591997
273 1 0.827875 0.163078 0.581126
228 1 0.745379 0.127597 0.566302
794 1 0.953308 0.0153758 0.509464
677 1 0.978915 0.215035 0.544555
801 1 0.56534 0.480855 0.547282
73 2 0.594711 0.256341 0.523305
152 1 0.623697 0.356179 0.594626
895 1 0.53952 0.392651 0.501879
427 2 0.596442 0.408126 0.510336
509 1 0.590517 0.390432 0.530935
878 1 0.564154 0.275214 0.504763
924 1 0.606339 0.472637 0.508539
235 1 0.648201 0.292241 0.525986
279 1 0.644786 0.374285 0.501702
948 3 0.681344 0.351067 0.520416
431 2 0.677487 0.465306 0.5817
379 2 0.720998 0.472199 0.530108
720 1 0.739487 0.252723 0.554929
890 1 0.716556 0.428499 0.59396
831 2 0.623661 0.363874 0.57238
98 1 0.726604 0.333973 0.578456
203 2 0.6846 0.257352 0.567069
716 1 0.701777 0.410698 0.529403
391 1 0.653156 0.420914 0.568187
351 1 0.640818 0.305426 0.564802
1119 3 0.548107 0.41533 0.547136
1056 1 0.550562 0.261831 0.539004
850 1 0.563308 0.375854 0.566513
1081 5 0.550155 0.272169 0.57362
612 1 0.743846 0.330743 0.51338
840 1 0.586492 0.0464634 0.400812
530 3 0.940092 0.47371 0.553257
737 2 0.757917 0.385613 0.58526
430 5 0.785401 0.277976 0.590904
266 1 0.977542 0.472475 0.532675
189 1 0.776848 0.476023 0.540476
529 1 0.81658 0.383631 0.533499
869 3 0.984669 0.282419 0.543301
884 1 0.820633 0.282877 0.528145
843 5 0.919434 0.394749 0.525661
488 1 0.983728 0.301089 0.520747
825 2 0.805745 0.33882 0.51856
133 1 0.841855 0.357381 0.502293
18 1 0.788417 0.411565 0.568458
982 3 0.806609 0.255017 0.548951
1102 1 0.878463 0.439876 0.553398
769 1 0.844158 0.28781 0.564627
291 1 0.890055 0.368803 0.583954
1158 1 0.927234 0.275569 0.586905
623 1 0.989283 0.454604 0.569469
1100 2 0.815251 0.429795 0.549145
946 1 0.93888 0.323443 0.555472
742 2 0.898014 0.315278 0.572004
487 5 0.508275 0.0614137 0.552568
1054 5 0.998385 0.328795 0.46425
875 1 0.609906 0.0462136 0.599241
300 2 0.563578 0.198279 0.652871
1043 1 0.625985 0.198679 0.655768
788 1 0.728726 0.171657 0.648918
354 2 0.701515 0.194469 0.603997
441 2 0.637739 0.0221741 0.617047
748 1 0.671074 0.211701 0.622317
46 5 0.882468 0.0490034 0.683003
1152 1 0.67428 0.0602724 0.628023
122 5 0.72783 0.0712356 0.661545
656 2 0.681911 0.211957 0.644326
539 1 0.528797 0.145648 0.651067
1025 1 0.525659 0.15455 0.617234
240 1 0.561505 0.245678 0.605764
601 1 0.5423 0.246306 0.641122
448 5 0.763527 0.100414 0.630395
136 5 0.998217 0.338005 0.617932
932 1 0.82252 0.051053 0.650537
194 5 0.963941 0.0841495 0.653203
33 5 0.856485 0.153221 0.643432
383 1 0.954472 0.203994 0.653199
93 1 0.964691 0.232908 0.618571
666 1 0.865513 0.22169 0.607248
975 5 0.929448 0.0746248 0.609305
335 1 0.837533 0.119109 0.613315
292 2 0.825653 0.172722 0.602781
1151 1 0.764807 0.189888 0.607931
1140 2 0.989413 0.198022 0.634967
507 2 0.928182 0.227262 0.601252
162 1 0.992579 0.135695 0.629225
498 1 0.979793 0.420119 0.602522
355 1 0.710526 0.385109 0.647786
223 1 0.642596 0.421733 0.6241
933 2 0.646942 0.359261 0.614408
642 2 0.696016 0.441903 0.637313
527 1 0.706891 0.335851 0.619741
457 2 0.730618 0.327995 0.63976
771 1 0.703386 0.271747 0.64701
1130 2 0.577879 0.443758 0.626075
641 1 0.560985 0.417711 0.644583
463 2 0.550265 0.285747 0.623474
1009 1 0.605697 0.323365 0.626118
193 1 0.543737 0.41282 0.610406
471 1 0.673221 0.495474 0.645355
675 1 0.749297 0.461619 0.627522
524 1 0.504654 0.328464 0.621754
337 5 0.966264 0.420626 0.641108
1182 5 0.920259 0.275487 0.670979
1080 2 0.861041 0.388292 0.602218
972 1 0.844791 0.44912 0.60719
1040 1 0.899908 0.352631 0.653428
963 1 0.836993 0.422648 0.639329
569 1 0.796674 0.32954 0.638257
65 1 0.883527 0.355008 0.619013
1132 2 0.814735 0.469445 0.625681
887 2 0.85516 0.359598 0.638063
481 1 0.58501 0.00451951 0.628455
56 1 0.801426 0.36265 0.60014
239 1 0.6504 0.586289 0.345746
411 2 0.737866 0.634425 0.376985
845 1 0.520966 0.989747 0.333264