ITEM: TIMESTEP
3000
ITEM: NUMBER OF ATOMS
1200
ITEM: BOX BOUNDS pp pp pp
-7.6266250050336382e-02 2.5098596345622489e+01
-7.6266250050336382e-02 2.5098596345622489e+01
-2.5251128845723162e+01 5.0273458941295317e+01
ITEM: ATOMS id type xs ys zs
760 1 0.0794036 0.139347 0.393292
419 1 0.231786 0.147486 0.367939
108 1 0.232969 0.0447949 0.356902
96 1 0.0449023 0.0476255 0.385226
1076 1 0.188635 0.10641 0.336221
1193 1 0.11627 0.0866415 0.363637
580 5 0.148321 0.180736 0.352803
269 2 0.0264959 0.194391 0.337524
638 5 0.155478 0.140613 0.307162
390 2 0.0975349 0.083018 0.384167
645 3 0.165523 0.0571632 0.350034
967 1 0.0732705 0.158907 0.328738
542 1 0.150039 0.0642519 0.394936
1149 3 0.248507 0.109005 0.34994
992 5 0.0575013 0.0558652 0.337749
804 1 0.242337 0.0119384 0.390778
382 5 0.206448 0.224988 0.383945
418 1 0.044422 0.242635 0.351031
1146 5 0.00480957 0.233549 0.37972
635 5 0.311021 0.232982 0.342244
787 1 0.403532 0.237997 0.352479
314 1 0.445869 0.180773 0.387147
590 2 0.483429 0.233434 0.385099
559 1 0.42834 0.0423574 0.358672
973 5 0.401524 0.139776 0.352399
468 2 0.393074 0.150072 0.395801
1174 1 0.308647 0.126073 0.341766
1037 1 0.374358 0.103071 0.382255
432 5 0.316431 0.181979 0.368183
196 2 0.387613 0.0404174 0.375526
465 1 0.33387 0.0103156 0.370631
907 1 0.416947 0.0121432 0.391827
500 5 0.445941 0.103339 0.331375
624 3 0.495779 0.0191419 0.355764
26 5 0.191282 0.410702 0.335329
577 2 0.0989952 0.470176 0.364501
82 1 0.196322 0.311523 0.351357
40 5 0.106661 0.324171 0.341608
813 1 0.0314435 0.463877 0.369151
403 5 0.140364 0.358496 0.383192
834 1 0.130283 0.476081 0.383875
915 1 0.111611 0.414123 0.356334
904 5 0.0236282 0.360449 0.367705
1071 1 0.234842 0.36403 0.380945
346 2 0.245549 0.32612 0.364558
1173 1 0.0570943 0.334761 0.397405
409 1 0.473895 0.388303 0.381584
660 1 0.274277 0.270102 0.370414
412 2 0.351914 0.365548 0.34953
1159 2 0.422205 0.34853 0.385322
929 1 0.482395 0.254258 0.332081
628 1 0.381387 0.325896 0.335671
151 1 0.376774 0.352053 0.369129
690 3 0.499012 0.393663 0.360325
456 1 0.46902 0.335676 0.351448
917 2 0.446929 0.486531 0.391627
935 2 0.435537 0.286067 0.342793
893 5 0.316517 0.285824 0.398057
460 1 0.363432 0.429881 0.346953
1053 1 0.288523 0.356391 0.35133
565 5 0.281172 0.444871 0.380981
703 2 0.407385 0.470925 0.354106
241 1 0.444921 0.287433 0.384182
373 1 0.404922 0.468454 0.376149
1171 1 0.466691 0.446854 0.349377
397 2 0.0310319 0.230898 0.473676
885 5 0.184939 0.238907 0.477297
1185 5 0.11902 0.159796 0.484184
88 1 0.0366119 0.167546 0.475326
28 1 0.21049 0.12012 0.495276
62 5 0.235268 0.0387195 0.449883
953 5 0.0932551 0.0243426 0.428557
1060 5 0.181686 0.22822 0.431023
137 5 0.18472 0.125298 0.440203
377 2 0.0593215 0.170752 0.411714
537 1 0.224844 0.0685392 0.419937
15 5 0.0753009 0.0684842 0.47026
353 1 0.0582875 0.234123 0.407765
1024 1 0.106361 0.156018 0.425418
1070 2 0.198014 0.0329971 0.404654
20 1 0.147081 0.0205793 0.455708
472 1 0.24764 0.0320393 0.482159
746 1 4.26373e-05 0.148766 0.41674
75 1 0.314361 0.101103 0.496191
375 2 0.259421 0.0952096 0.484074
206 1 0.258544 0.228505 0.495246
407 1 0.486799 0.213107 0.497685
247 5 0.408661 0.12057 0.473088
378 2 0.456816 0.0250732 0.448118
516 1 0.455079 0.0921076 0.446209
406 1 0.474447 0.186218 0.431987
91 1 0.414911 0.125235 0.414079
920 2 0.463609 0.126041 0.428084
858 1 0.264886 0.188131 0.437185
443 2 0.306235 0.150892 0.448408
14 1 0.332195 0.0977696 0.439392
968 1 0.273072 0.12594 0.465824
72 1 0.355211 0.189551 0.454747
922 5 0.347857 0.219172 0.48547
322 5 0.37518 0.249992 0.425973
86 1 0.405425 0.00871002 0.460123
290 1 0.349261 0.194869 0.401101
211 5 0.326903 0.0582887 0.4094
479 1 0.453773 0.000103659 0.428129
309 5 0.262942 0.148936 0.406967
877 1 0.436587 0.00463945 0.492428
1017 1 0.0897011 0.254406 0.469725
208 1 0.220132 0.489347 0.436891
533 1 0.148328 0.283859 0.400233
779 5 0.126851 0.457917 0.47455
242 1 0.00662346 0.257179 0.491926
754 1 0.0284763 0.45014 0.469114
78 5 0.151474 0.319876 0.477087
663 1 0.119925 0.378561 0.456559
1079 5 0.231751 0.43067 0.411958
435 1 0.192208 0.313836 0.446421
871 3 0.00746163 0.430805 0.490895
827 1 0.0963792 0.307911 0.429288
689 2 0.141631 0.349001 0.439122
722 1 0.0918047 0.486411 0.441993
1128 2 0.0326988 0.463819 0.448291
249 2 0.0889283 0.291441 0.408804
265 1 0.157858 0.388863 0.423354
741 5 0.0695159 0.427843 0.40767
188 5 0.229281 0.331404 0.410468
364 1 0.00397644 0.361702 0.495933
34 1 0.241858 0.425015 0.478544
392 1 0.0136596 0.408527 0.438593
1054 5 0.0212607 0.341154 0.460297
976 5 0.493453 0.379393 0.423017
1039 5 0.257343 0.374071 0.452588
32 5 0.284289 0.274809 0.450509
998 1 0.391377 0.358042 0.403419
102 5 0.481161 0.359119 0.453634
1078 1 0.374484 0.411607 0.470399
564 2 0.373144 0.364766 0.486256
139 5 0.254456 0.336337 0.490535
561 1 0.342934 0.31319 0.478214
256 2 0.256779 0.484158 0.485436
447 2 0.482822 0.404442 0.493562
4 1 0.43659 0.359523 0.491313
608 1 0.462543 0.457548 0.410409
696 5 0.416439 0.264193 0.45667
996 1 0.458801 0.291773 0.429985
109 1 0.307204 0.34694 0.425672
694 1 0.315293 0.461059 0.446709
494 2 0.356842 0.387351 0.41858
308 1 0.393269 0.405926 0.435537
633 1 0.330781 0.435569 0.407879
410 2 0.375361 0.445219 0.452337
547 1 0.31078 0.489389 0.495674
851 1 0.410596 0.499481 0.453684
69 2 0.213335 0.215453 0.597794
640 1 0.0527002 0.0157105 0.569675
550 1 0.128038 0.114589 0.519465
574 5 0.0321466 0.0962218 0.513354
1155 1 0.138411 0.221602 0.505681
520 2 0.188979 0.120834 0.515338
811 1 0.218018 0.0665141 0.52288
643 1 0.220345 0.173027 0.524328
785 1 0.113127 0.0834662 0.586814
857 1 0.211461 0.0637888 0.579445
114 2 0.237721 0.0208109 0.592601
1089 1 0.0117814 0.0842776 0.594362
1006 1 0.0447423 0.124085 0.544497
738 3 0.0816644 0.22559 0.588303
647 2 0.165242 0.110464 0.577314
192 1 0.15104 0.11677 0.55678
632 1 0.0312125 0.180845 0.580393
897 2 0.0599981 0.0459106 0.58866
826 3 0.106495 0.0941259 0.540358
680 1 0.0967074 0.0273719 0.539766
548 1 0.188123 0.163122 0.587415
803 5 0.194045 0.194779 0.553609
219 1 0.118867 0.235558 0.569103
296 1 0.0594386 0.0110624 0.50118
545 2 0.211917 0.000577041 0.523958
487 5 0.485589 0.0662546 0.548555
991 5 0.333012 0.116631 0.589688
10 1 0.255008 0.23809 0.583076
23 1 0.354154 0.0872375 0.529305
298 2 0.261468 0.214922 0.516146
101 1 0.318061 0.181412 0.518031
854 2 0.347545 0.12576 0.512377
470 2 0.455635 0.183151 0.51341
413 1 0.429593 0.22466 0.527537
684 1 0.479527 0.0184951 0.523314
833 1 0.405693 0.147701 0.505613
81 1 0.413087 0.0272018 0.591218
961 2 0.446046 0.0825741 0.589445
900 3 0.420223 0.231626 0.592169
945 5 0.472116 0.198221 0.558032
42 1 0.48305 0.198138 0.590404
1161 1 0.420658 0.113509 0.572401
1066 5 0.375774 0.15856 0.54787
596 1 0.286988 0.165747 0.561893
1199 2 0.304111 0.222029 0.57093
220 1 0.301701 0.0169291 0.58898
646 5 0.265739 0.074437 0.551457
837 5 0.364244 0.0111257 0.547056
438 1 0.355994 0.209551 0.584418
930 2 0.491202 0.0242978 0.501389
395 5 0.348319 0.0109949 0.510719
518 1 0.0588845 0.290855 0.592554
342 5 0.140622 0.481848 0.521643
1117 5 0.112198 0.370044 0.596479
1001 2 0.134965 0.280166 0.515374
92 1 0.0739994 0.303942 0.512022
916 1 0.0452607 0.458409 0.509242
605 1 0.177947 0.320201 0.507133
424 2 0.0114747 0.304651 0.505835
798 5 0.210543 0.410458 0.50901
317 3 0.222426 0.470354 0.584015
611 1 0.232873 0.338868 0.551003
215 1 0.197545 0.427402 0.567879
367 5 0.0520756 0.383608 0.532453
366 1 0.047475 0.298033 0.55181
759 1 0.135429 0.344483 0.564858
231 2 0.109947 0.288462 0.557082
153 1 0.139573 0.276813 0.537713
127 1 0.152363 0.400935 0.53641
352 1 0.0684017 0.468867 0.592324
174 2 0.183243 0.379417 0.553926
439 5 0.124233 0.475648 0.555002
786 2 0.00199205 0.465649 0.591063
130 5 0.0014525 0.358427 0.5753
1194 5 0.322831 0.429795 0.562233
1105 1 0.324224 0.349222 0.535413
204 1 0.454417 0.456678 0.502399
105 2 0.283205 0.305635 0.543649
372 1 0.354891 0.336603 0.594517
706 1 0.437612 0.483043 0.564104
977 1 0.263647 0.2653 0.529171
535 1 0.282644 0.441102 0.530301
227 1 0.433308 0.286744 0.577214
340 1 0.374409 0.490308 0.592308
966 1 0.38869 0.435383 0.532449
784 2 0.43858 0.458498 0.544026
348 5 0.491418 0.33345 0.554189
303 1 0.486567 0.418162 0.541254
558 5 0.26111 0.333249 0.591759
100 2 0.334321 0.406868 0.524432
1013 1 0.340815 0.384122 0.503721
652 5 0.407789 0.310521 0.545292
1099 1 0.398337 0.381599 0.565935
812 2 0.408225 0.34428 0.583202
1118 1 0.276422 0.435073 0.594122
943 5 0.478206 0.309401 0.516817
1057 1 0.316629 0.271408 0.558504
344 1 0.45262 0.374012 0.595163
1131 5 0.171055 0.0193446 0.673223
142 1 0.161204 0.131654 0.670516
711 5 0.150679 0.0054006 0.628483
700 1 0.148635 0.149912 0.636433
359 1 0.215162 0.071446 0.646959
1126 1 0.104925 0.198115 0.607758
47 2 0.113755 0.199017 0.629298
94 1 0.0531673 0.202222 0.638288
230 2 0.191879 0.131065 0.651942
986 1 0.232802 0.0358689 0.613834
1108 5 0.0170558 0.0617556 0.626087
123 1 0.242987 0.16783 0.648137
610 1 0.247015 0.192919 0.614662
1094 2 0.261694 0.0485696 0.632591
1072 1 0.438631 0.170506 0.63646
753 1 0.470151 0.0670265 0.63481
209 1 0.40832 0.247275 0.614344
255 1 0.337599 0.196813 0.633698
365 1 0.29341 0.103479 0.627026
111 2 0.397972 0.220609 0.634152
651 2 0.282182 0.169385 0.63056
415 1 0.431456 0.114256 0.607593
1042 2 0.469688 0.123399 0.625358
1103 2 0.46352 0.00543475 0.642462
931 1 0.29865 0.00423255 0.64141
909 5 0.0490106 0.284742 0.658593
50 5 0.0408755 0.419049 0.669855
1085 2 0.112319 0.486952 0.606389
458 1 0.144318 0.254097 0.635301
51 1 0.137525 0.415126 0.657482
343 1 0.242409 0.300071 0.633106
1114 2 0.181993 0.295996 0.625874
1145 1 0.0590229 0.368586 0.640393
870 1 0.155814 0.356978 0.627896
631 1 0.106258 0.450854 0.624169
1069 2 0.115548 0.399754 0.637982
1104 1 0.00542985 0.488061 0.644958
551 1 0.189149 0.270901 0.605875
639 5 0.22174 0.475781 0.658611
393 5 0.110339 0.49789 0.669234
136 5 0.0110642 0.330205 0.616445
556 1 0.175951 0.478548 0.600726
956 1 0.351171 0.439123 0.620809
202 5 0.451087 0.338448 0.665927
1150 1 0.449365 0.410209 0.62882
525 2 0.48153 0.377842 0.613383
607 2 0.323164 0.468654 0.604096
1183 5 0.304935 0.317115 0.655026
1000 1 0.377095 0.408053 0.654616
71 2 0.394624 0.440948 0.637701
999 1 0.400592 0.266454 0.648781
31 5 0.337472 0.327016 0.625837
524 1 0.499433 0.317168 0.620322
861 1 0.476654 0.49001 0.600054
370 1 0.108601 0.525064 0.353867
388 1 0.239548 0.731722 0.393372
1136 1 0.167799 0.737806 0.365145
1101 1 0.153383 0.57403 0.382018
708 1 0.101582 0.651642 0.362903
85 1 0.045575 0.573273 0.37862
839 2 0.110777 0.711263 0.371887
572 2 0.162982 0.52344 0.394484
1144 3 0.100517 0.586341 0.366282
1135 1 0.109525 0.709559 0.394346
429 5 0.2135 0.640752 0.386065
575 1 0.225861 0.511505 0.394929
422 5 0.0123496 0.700815 0.347097
734 5 0.340252 0.686948 0.381689
1033 1 0.411339 0.644261 0.342862
1064 1 0.47922 0.585437 0.360736
918 1 0.400982 0.534165 0.349449
715 2 0.416681 0.593945 0.355395
579 1 0.387821 0.601738 0.375486
124 2 0.399594 0.601775 0.396712
9 1 0.499974 0.507683 0.381031
176 5 0.339018 0.712341 0.335778
404 1 0.279546 0.719437 0.358705
598 1 0.449746 0.641395 0.398792
763 1 0.0651297 0.751643 0.366335
815 2 0.144313 0.927493 0.3983
84 3 0.234649 0.753839 0.372174
1122 1 0.245701 0.932879 0.36289
1088 2 0.211167 0.882708 0.369687
286 1 0.239049 0.826618 0.369105
797 1 0.202948 0.89492 0.39191
89 1 0.154833 0.889384 0.360422
416 1 0.0604188 0.920606 0.355326
6 5 0.0630625 0.842418 0.377267
519 2 0.118497 0.943875 0.360213
747 1 0.12548 0.95856 0.380511
750 5 0.213837 0.770289 0.338468
762 1 0.136543 0.992324 0.347747
697 5 0.3681 0.923079 0.375668
52 5 0.364403 0.842721 0.390376
758 1 0.449025 0.877381 0.378
679 1 0.301892 0.916012 0.395822
793 3 0.265024 0.996628 0.369894
1062 5 0.497744 0.7957 0.396442
1007 1 0.169867 0.608884 0.483195
12 5 0.087188 0.70622 0.486272
1157 1 0.100153 0.653819 0.460803
531 1 0.229452 0.739236 0.430208
620 2 0.21207 0.677552 0.433136
135 1 0.205894 0.659611 0.453576
1058 1 0.15093 0.675585 0.42542
670 1 0.155204 0.570872 0.449507
444 1 0.141489 0.530857 0.414301
994 5 0.0536116 0.586361 0.438751
446 1 0.0470527 0.656542 0.417106
1137 2 0.0968759 0.698152 0.415312
1169 2 0.157181 0.624238 0.461954
739 5 0.0480919 0.559084 0.410534
445 3 0.152254 0.511873 0.436941
45 1 0.207421 0.502787 0.497832
606 1 0.00300316 0.741844 0.476958
718 1 0.253803 0.640203 0.422169
1083 1 0.328732 0.637028 0.476046
213 5 0.361486 0.550945 0.477201
1002 1 0.261196 0.519965 0.467206
1018 2 0.294383 0.650368 0.493588
349 1 0.252255 0.700392 0.494839
749 1 0.396289 0.713973 0.468072
554 5 0.449035 0.652966 0.489781
501 5 0.487645 0.661913 0.431192
499 1 0.422655 0.729059 0.434117
528 1 0.419026 0.611717 0.459347
1049 3 0.456324 0.552721 0.453719
1031 1 0.335288 0.659171 0.443038
789 1 0.302681 0.558045 0.434652
562 1 0.33475 0.736274 0.41072
847 1 0.349827 0.61836 0.409991
911 2 0.312762 0.620422 0.427088
740 2 0.272598 0.512353 0.445956
1038 2 0.372073 0.657798 0.460761
238 1 0.484244 0.562084 0.433348
985 5 0.314075 0.525246 0.403015
305 1 0.498993 0.714057 0.462683
919 1 0.418073 0.540508 0.40027
170 1 0.011936 0.994991 0.413783
844 2 0.229837 0.75413 0.485049
11 1 0.167186 0.751676 0.48313
637 1 0.163749 0.978697 0.411311
426 1 0.0727835 0.856194 0.467156
1087 1 0.12369 0.95692 0.481653
167 5 0.147083 0.864684 0.490713
374 1 0.240241 0.906125 0.487397
705 2 0.231674 0.907626 0.447247
603 1 0.23871 0.910122 0.42593
475 5 0.035307 0.915001 0.426047
823 5 0.151656 0.769412 0.451987
180 5 0.0983309 0.851735 0.435034
35 1 0.0838268 0.753175 0.424816
594 1 0.169831 0.916579 0.453315
988 2 0.125989 0.960524 0.459696
892 1 0.067729 0.958408 0.45149
997 5 0.0339881 0.7796 0.449942
70 2 0.0190374 0.875475 0.476403
853 5 0.0383503 0.810882 0.406952
334 1 0.102744 0.883597 0.405426
434 1 0.244338 0.80817 0.496411
318 1 0.00627588 0.832346 0.492594
252 1 0.00479704 0.932145 0.486397
183 2 0.254544 0.886926 0.405977
386 1 0.268795 0.824844 0.408393
1197 2 0.450279 0.750279 0.468413
1156 3 0.266669 0.754889 0.411894
941 1 0.340415 0.963402 0.484223
764 1 0.345559 0.825493 0.472685
881 1 0.264074 0.757061 0.466942
1015 3 0.268813 0.966859 0.480346
294 1 0.432032 0.915204 0.47329
293 1 0.457262 0.767272 0.489726
874 2 0.402103 0.971652 0.477493
140 1 0.398486 0.814174 0.417886
699 1 0.399606 0.917697 0.41249
958 3 0.400946 0.857772 0.465341
325 1 0.445329 0.806368 0.458348
277 1 0.479667 0.878641 0.430034
898 3 0.445456 0.970124 0.407778
356 2 0.416453 0.870686 0.426241
1034 1 0.380043 0.881983 0.444238
226 1 0.266881 0.953311 0.457006
138 1 0.332939 0.778817 0.441939
513 2 0.300594 0.802686 0.458477
980 5 0.338712 0.971615 0.4363
144 2 0.373621 0.759603 0.426265
942 1 0.257394 0.848895 0.453384
1112 3 0.200395 0.572166 0.500403
361 5 0.00844514 0.598189 0.546054
685 2 0.0183924 0.504488 0.521635
544 1 0.211485 0.588666 0.598507
1189 5 0.162068 0.698882 0.516739
549 1 0.0789881 0.674431 0.528116
1147 5 0.0928521 0.599789 0.507618
665 2 0.0279057 0.712677 0.529951
657 1 0.172325 0.587626 0.520539
655 5 0.242782 0.657594 0.538802
120 1 0.23587 0.619775 0.56771
910 5 0.115012 0.605909 0.545962
182 1 0.153161 0.551263 0.570396
39 1 0.0599762 0.524471 0.537091
616 1 0.0344117 0.642724 0.573002
506 1 0.139759 0.650881 0.580969
1142 5 0.0382119 0.545005 0.572419
820 2 0.0771245 0.670642 0.585299
751 1 0.165958 0.733667 0.552808
145 1 0.07884 0.7337 0.577415
1061 2 0.182586 0.601084 0.579211
7 1 0.0231267 0.745817 0.511388
5 1 0.00251966 0.555548 0.51024
387 1 0.424011 0.565656 0.502423
462 5 0.489022 0.61304 0.52591
886 5 0.264272 0.724623 0.564357
618 5 0.253366 0.528991 0.527899
307 2 0.364316 0.705046 0.524886
678 1 0.338501 0.667339 0.509606
568 5 0.346147 0.543131 0.518384
168 1 0.264776 0.598282 0.500484
978 2 0.460603 0.5175 0.509868
581 1 0.410009 0.673379 0.537333
902 1 0.407656 0.67407 0.571326
181 1 0.439059 0.57123 0.582438
1170 2 0.4359 0.705226 0.554856
541 5 0.401361 0.576811 0.547552
281 1 0.306634 0.574837 0.547064
79 1 0.31519 0.724791 0.536865
1 1 0.33221 0.597037 0.580776
143 1 0.260604 0.521557 0.573934
1028 3 0.394322 0.626774 0.586546
534 2 0.285532 0.577157 0.567082
268 1 0.451243 0.511966 0.531401
952 2 0.433442 0.504689 0.584069
178 1 0.499941 0.696224 0.554496
949 5 0.00514966 0.876739 0.521063
474 1 0.157813 0.991009 0.512425
862 1 0.00272664 0.970845 0.541037
490 5 0.119563 0.842335 0.529295
1050 1 0.0901632 0.912283 0.51149
576 2 0.108 0.96795 0.502509
246 1 0.209312 0.874636 0.520747
702 1 0.0329068 0.760063 0.544507
1116 1 0.213059 0.960452 0.592987
1141 1 0.212768 0.98841 0.544993
262 1 0.166885 0.768045 0.586749
727 3 0.0769543 0.8755 0.567334
860 2 0.059211 0.983234 0.549682
451 5 0.158539 0.972941 0.56867
405 1 0.0923983 0.907962 0.586898
765 1 0.11791 0.823175 0.562666
399 5 0.17178 0.89356 0.550735
376 1 0.0902828 0.927724 0.553062
482 1 0.0152253 0.843778 0.565403
567 2 0.131492 0.761679 0.568374
841 5 0.249273 0.796835 0.535417
816 1 0.247058 0.843193 0.566239
360 1 0.452115 0.921876 0.590489
731 1 0.347268 0.829084 0.571864
450 2 0.428117 0.929296 0.570237
905 1 0.3676 0.939663 0.5751
484 1 0.43671 0.871962 0.560873
221 2 0.288283 0.831076 0.582155
310 5 0.27611 0.906003 0.541899
234 3 0.361822 0.98166 0.593968
592 1 0.369953 0.847301 0.536568
283 1 0.396218 0.754563 0.51637
1023 1 0.280105 0.882563 0.595233
1115 1 0.281976 0.7771 0.593067
1113 1 0.493296 0.802641 0.522701
1011 2 0.252748 0.869314 0.50428
1184 1 0.314553 0.875029 0.510803
495 1 0.396948 0.941328 0.52473
1093 2 0.373031 0.884803 0.518159
41 1 0.26515 0.973983 0.515921
511 1 0.417598 0.85442 0.505696
83 2 0.442836 0.794301 0.508214
368 2 0.391806 0.826272 0.556216
414 1 0.451495 0.971939 0.555749
719 3 0.459182 0.961662 0.53367
1095 1 0.448371 0.772332 0.590747
315 1 0.418594 0.767346 0.554752
913 5 0.100303 0.642274 0.668159
68 1 0.21891 0.560323 0.631847
852 2 0.242157 0.699558 0.663547
329 1 0.222245 0.648778 0.651262
950 2 0.186391 0.596751 0.645799
1166 1 0.21671 0.700153 0.68285
627 1 0.034769 0.563235 0.668656
819 1 0.0721208 0.647994 0.606062
609 2 0.0843746 0.60316 0.622151
704 1 0.172556 0.561414 0.663109
891 1 0.106542 0.550196 0.610391
455 1 0.130031 0.613971 0.636606
955 1 0.0345439 0.585448 0.633632
906 2 0.0048808 0.55073 0.649849
440 5 0.239685 0.695684 0.606169
1020 1 0.045634 0.740681 0.638555
459 1 0.0249867 0.700171 0.670562
1065 2 0.00174977 0.736235 0.654952
17 2 0.495133 0.745884 0.602536
483 1 0.472031 0.572046 0.625687
1008 1 0.418164 0.72991 0.651495
1191 1 0.477692 0.749308 0.623905
1074 2 0.428657 0.565501 0.642566
106 1 0.463101 0.578451 0.659451
119 1 0.386373 0.654405 0.607287
125 1 0.306986 0.695482 0.666748
1125 2 0.25479 0.572878 0.613865
186 2 0.353042 0.727904 0.654352
923 1 0.29016 0.623594 0.619057
733 1 0.296546 0.525395 0.610324
927 1 0.338928 0.703971 0.634246
363 1 0.379238 0.607338 0.638745
129 2 0.351387 0.647079 0.624788
437 5 0.294111 0.642251 0.697165
54 1 0.409509 0.504523 0.64168
521 1 0.183773 0.859647 0.603196
1046 1 0.00366662 0.920374 0.602977
710 1 0.223927 0.755622 0.652962
937 3 0.215951 0.907588 0.646348
442 2 0.227598 0.907933 0.603828
1167 2 0.217856 0.797244 0.637123
588 1 0.194513 0.768694 0.6198
653 1 0.230457 0.925802 0.625213
80 1 0.173798 0.847754 0.641411
712 1 0.0973725 0.799012 0.612944
1067 2 0.157402 0.800631 0.605249
502 2 0.00456533 0.853098 0.650389
802 2 0.0421619 0.781352 0.621528
244 3 0.120724 0.894259 0.643097
324 1 0.159134 0.9458 0.652135
1124 2 0.0669604 0.932983 0.60503
1003 1 0.0666068 0.869359 0.654959
60 1 0.098154 0.919615 0.622476
345 1 0.00873239 0.832451 0.629954
104 5 0.20447 0.819218 0.68144
236 1 0.00359082 0.758571 0.605642
1111 1 0.0748046 0.99695 0.602382
99 2 0.491216 0.933987 0.607544
1106 1 0.397055 0.814878 0.630371
1014 1 0.40148 0.99534 0.64829
838 1 0.469316 0.967972 0.624775
908 1 0.345788 0.90668 0.64321
338 1 0.487866 0.81447 0.651168
132 1 0.337275 0.790021 0.657405
867 5 0.395374 0.853612 0.601745
491 2 0.445701 0.777965 0.639726
1123 1 0.355866 0.965251 0.616332
205 5 0.34252 0.877302 0.674813
177 3 0.336623 0.838243 0.640093
217 1 0.274459 0.823741 0.631359
960 1 0.250494 0.88409 0.663331
1110 2 0.35179 0.968174 0.637875
1180 5 0.366167 0.752923 0.604161
285 1 0.705034 0.147336 0.387689
725 1 0.641307 0.0586846 0.367147
464 1 0.6832 0.120781 0.341693
1178 2 0.717982 0.194843 0.374899
1092 2 0.684837 0.0643796 0.351776
810 1 0.742739 0.066527 0.361615
1016 5 0.586038 0.142682 0.364733
321 1 0.541247 0.0506946 0.370695
934 1 0.517475 0.238303 0.366372
1148 2 0.597282 0.0315032 0.379916
328 2 0.52308 0.220136 0.345526
688 1 0.693331 0.230702 0.334328
984 1 0.662923 0.216146 0.365271
121 5 0.578918 0.0738919 0.315101
267 1 0.586154 0.231816 0.339584
903 1 0.675698 0.0153227 0.338835
1175 1 0.583963 0.157342 0.395871
757 1 0.506637 0.158865 0.344968
585 3 0.729479 0.170059 0.337665
16 2 0.645857 0.249077 0.347233
1096 1 0.732597 0.243041 0.388801
822 5 0.607095 0.248514 0.397113
845 1 0.520528 0.0272633 0.334129
1026 1 0.759677 0.18672 0.358939
1073 2 0.804109 0.067557 0.368935
818 2 0.837061 0.108094 0.330356
330 1 0.889309 0.14951 0.327654
540 5 0.84857 0.186048 0.370447
288 2 0.932704 0.191179 0.335231
1068 1 0.783918 0.145112 0.326482
990 1 0.838297 0.0950983 0.351787
107 1 0.833153 0.0529 0.319975
389 1 0.980582 0.211604 0.323309
1163 1 0.813304 0.096871 0.387692
261 1 0.905384 0.242315 0.345326
614 1 0.976278 0.166257 0.349564
1032 1 0.821149 0.00641321 0.372484
21 5 0.935593 0.0756157 0.361623
957 1 0.938702 0.0398076 0.391203
159 2 0.996965 0.0114387 0.393993
835 1 0.979682 0.000220566 0.348763
649 1 0.651746 0.48783 0.39511
428 1 0.629856 0.484392 0.330747
807 5 0.552782 0.432471 0.324047
555 1 0.748691 0.37388 0.342354
497 5 0.666563 0.394319 0.331654
940 1 0.606293 0.336381 0.386308
729 1 0.640059 0.31185 0.354286
396 1 0.744245 0.457786 0.381879
254 2 0.68152 0.466182 0.378066
77 1 0.65861 0.41084 0.370555
774 1 0.566599 0.38876 0.35795
1192 2 0.617958 0.361572 0.366621
676 1 0.749691 0.336189 0.376048
947 2 0.889315 0.290881 0.357773
299 1 0.917673 0.349929 0.355252
1200 1 0.822745 0.403435 0.366154
686 2 0.976857 0.475505 0.379317
436 1 0.885971 0.450647 0.341551
467 2 0.873677 0.276035 0.399007
799 2 0.750841 0.301328 0.394342
297 1 0.815366 0.301272 0.397825
341 1 0.930119 0.431984 0.378374
1045 1 0.825269 0.301658 0.356506
477 5 0.809988 0.432764 0.321987
732 2 0.805824 0.444573 0.383125
692 2 0.785004 0.352184 0.358205
745 3 0.893387 0.412673 0.359884
1010 1 0.898537 0.276644 0.379088
1019 5 0.549163 0.110887 0.468129
1030 2 0.537808 0.242806 0.486502
146 1 0.579331 0.197647 0.479951
691 1 0.640684 0.119315 0.488395
613 2 0.641907 0.177392 0.478914
179 1 0.684888 0.213406 0.489186
469 5 0.719523 0.0320065 0.47403
783 1 0.667991 0.0611331 0.450924
2 1 0.613806 0.125784 0.428275
454 1 0.654853 0.163494 0.45783
401 5 0.742505 0.211618 0.458474
489 1 0.719984 0.133298 0.43201
864 2 0.664106 0.120191 0.44183
795 5 0.673182 0.194638 0.412223
3 2 0.577022 0.111311 0.410151
30 1 0.517922 0.102629 0.417617
115 1 0.509418 0.240276 0.404971
1133 1 0.556785 0.248104 0.437156
770 1 0.513971 0.0130465 0.45666
687 1 0.503409 0.0840404 0.495249
840 1 0.598544 0.0567854 0.4004
517 5 0.733496 0.0755408 0.404595
713 1 0.643656 0.0209971 0.49671
128 5 0.602668 0.0188443 0.467749
557 2 0.502157 0.242635 0.425659
493 5 0.916854 0.120342 0.406182
683 1 0.987583 0.2473 0.458237
478 1 0.802486 0.132523 0.472461
682 5 0.964791 0.122243 0.493382
253 5 0.89507 0.0538698 0.463196
622 2 0.856027 0.1693 0.470559
116 1 0.882314 0.176525 0.490245
199 5 0.843667 0.0141572 0.403514
782 1 0.835092 0.228397 0.464271
582 5 0.933272 0.206544 0.433794
1179 5 0.988388 0.124639 0.449078
522 5 0.779823 0.177192 0.412
214 1 0.871747 0.214274 0.404878
829 1 0.89628 0.147862 0.455641
95 5 0.808809 0.0968026 0.4392
394 1 0.977883 0.0420726 0.47716
693 5 0.791912 0.232286 0.495275
218 5 0.586389 0.370233 0.473336
1052 5 0.696713 0.307307 0.483389
1168 5 0.7047 0.438857 0.485246
546 2 0.600361 0.290758 0.443927
721 5 0.61732 0.382282 0.411361
593 3 0.65945 0.485519 0.452364
433 1 0.72264 0.336658 0.447423
312 1 0.6505 0.281221 0.43035
44 2 0.710568 0.301319 0.429522
57 1 0.621241 0.282539 0.464066
37 1 0.719989 0.331564 0.410379
669 1 0.708585 0.435651 0.451766
767 1 0.600589 0.463852 0.46415
586 1 0.57938 0.352197 0.44139
536 1 0.520624 0.461836 0.4419
863 2 0.537315 0.47137 0.462239
466 1 0.511182 0.282739 0.472286
672 1 0.748769 0.250234 0.428694
880 1 0.506813 0.427984 0.475258
1059 1 0.994278 0.482815 0.400084
1004 2 0.755399 0.390711 0.45225
591 5 0.955504 0.393886 0.409684
1091 1 0.784515 0.384777 0.47111
761 3 0.841122 0.375423 0.484837
476 5 0.911016 0.274276 0.47972
357 2 0.884291 0.484133 0.492271
263 1 0.891643 0.365084 0.468694
1138 1 0.947028 0.463113 0.492433
735 1 0.84833 0.433418 0.497439
636 1 0.884226 0.449197 0.427413
674 1 0.816256 0.420324 0.402197
64 2 0.822818 0.442553 0.422406
131 1 0.907786 0.303769 0.414199
1021 5 0.838473 0.277342 0.437955
1190 5 0.91459 0.366324 0.437256
1035 5 0.929054 0.443266 0.45413
103 1 0.79669 0.399039 0.436197
190 1 0.792087 0.495832 0.42679
604 5 0.992708 0.305015 0.431234
1055 5 0.573834 0.00488031 0.533357
53 1 0.684662 0.132093 0.59817
1044 1 0.577312 0.00374835 0.569098
1121 2 0.563556 0.138698 0.528202
164 1 0.591764 0.0892009 0.519112
58 1 0.692657 0.0935706 0.517113
901 2 0.642127 0.0786151 0.505131
304 1 0.594791 0.194603 0.522061
1041 1 0.565032 0.132516 0.550237
936 1 0.720127 0.0344081 0.589413
1139 1 0.648789 0.101445 0.568669
626 2 0.608563 0.150219 0.565929
210 5 0.739363 0.0696583 0.542
339 2 0.696818 0.0880446 0.582151
43 5 0.695319 0.196837 0.527929
369 1 0.641624 0.202095 0.558969
971 1 0.686504 0.234937 0.587169
830 1 0.578786 0.166536 0.584474
350 2 0.55839 0.026068 0.588522
1195 1 0.509865 0.0662905 0.587037
228 1 0.746313 0.121274 0.570756
720 1 0.732881 0.248507 0.554949
1109 1 0.500694 0.149307 0.524819
250 2 0.539696 0.189382 0.599892
736 5 0.809454 0.0466711 0.598954
200 2 0.983108 0.14685 0.546556
1154 5 0.782376 0.121661 0.503081
515 5 0.882196 0.0838236 0.51181
408 1 0.952932 0.126978 0.528799
384 5 0.908324 0.21861 0.519494
224 1 0.809817 0.029351 0.518856
1198 1 0.818082 0.186186 0.555165
157 1 0.904176 0.0399047 0.584059
1005 1 0.840779 0.0820402 0.561081
332 1 0.959075 0.126914 0.565239
1187 2 0.877872 0.0296691 0.563914
809 2 0.985739 0.136648 0.584173
118 2 0.811426 0.135269 0.568428
147 1 0.91304 0.0162249 0.546509
570 1 0.941382 0.164594 0.597258
273 1 0.829692 0.151901 0.588384
794 1 0.952761 0.0113745 0.512907
677 1 0.976385 0.210498 0.547013
172 1 0.670189 0.494974 0.538649
944 1 0.650673 0.492269 0.596379
801 1 0.568712 0.488704 0.548198
73 2 0.588819 0.260748 0.522831
152 1 0.632913 0.361507 0.594298
895 1 0.53623 0.391096 0.505193
427 2 0.596982 0.404831 0.512703
509 1 0.594553 0.390668 0.533496
878 1 0.56302 0.275093 0.503663
924 1 0.603428 0.470684 0.509878
235 1 0.646382 0.289248 0.524581
279 1 0.644884 0.375874 0.501088
948 3 0.683191 0.344535 0.518418
431 2 0.691697 0.462409 0.581435
379 2 0.721605 0.465321 0.528722
890 1 0.733745 0.424993 0.592182
831 2 0.625742 0.365949 0.572657
98 1 0.729 0.330983 0.577433
203 2 0.679353 0.256575 0.56638
716 1 0.707399 0.402534 0.527272
391 1 0.65739 0.420059 0.56846
351 1 0.63766 0.306537 0.564882
1119 3 0.554795 0.420604 0.548028
1056 1 0.545858 0.270644 0.538678
850 1 0.563734 0.382414 0.566777
1081 5 0.550799 0.284483 0.573907
612 1 0.743848 0.317697 0.511323
899 1 0.727931 0.492368 0.509732
742 2 0.902184 0.305996 0.573792
56 1 0.81046 0.356165 0.59907
946 1 0.940065 0.312791 0.556948
1100 2 0.818299 0.419966 0.54746
1158 1 0.925071 0.263423 0.587882
291 1 0.903472 0.361261 0.584858
623 1 0.981208 0.46319 0.570364
530 3 0.935524 0.482236 0.553032
737 2 0.767519 0.375805 0.583698
430 5 0.783622 0.266123 0.593365
266 1 0.968322 0.481293 0.531939
189 1 0.775856 0.465939 0.540424
529 1 0.815137 0.372564 0.53236
869 3 0.984002 0.277711 0.544138
884 1 0.821094 0.269938 0.530457
843 5 0.912123 0.37866 0.51986
488 1 0.97187 0.300111 0.522732
825 2 0.804256 0.323511 0.51865
133 1 0.841059 0.326793 0.501489
18 1 0.794484 0.401281 0.566278
982 3 0.801577 0.251835 0.551508
1102 1 0.878263 0.442961 0.548829
769 1 0.842277 0.287131 0.566784
300 2 0.567755 0.193217 0.651237
1043 1 0.628461 0.212249 0.653069
788 1 0.725595 0.169603 0.649621
354 2 0.696651 0.193135 0.603576
441 2 0.629124 0.0223016 0.619691
748 1 0.66807 0.211486 0.622094
1152 1 0.662714 0.0585167 0.632113
122 5 0.663547 0.0927624 0.660732
656 2 0.686753 0.216421 0.64365
539 1 0.550086 0.13321 0.653789
1025 1 0.528232 0.150316 0.617163
240 1 0.561164 0.245397 0.60777
601 1 0.540109 0.241648 0.641319
875 1 0.607846 0.0463134 0.600988
507 2 0.926476 0.223591 0.60438
448 5 0.751022 0.0857509 0.634674
932 1 0.822317 0.0442959 0.655603
194 5 0.918354 0.0717923 0.651666
33 5 0.81796 0.1469 0.655209
383 1 0.968687 0.242445 0.65412
93 1 0.970423 0.238942 0.619152
666 1 0.866144 0.217828 0.612787
975 5 0.926802 0.0830112 0.615499
335 1 0.834624 0.123591 0.622754
292 2 0.822301 0.171248 0.609497
1151 1 0.761457 0.192658 0.608805
1140 2 0.988552 0.20622 0.637674
46 5 0.841618 0.0170157 0.687041
162 1 0.963326 0.146657 0.636318
355 1 0.708752 0.385372 0.649563
223 1 0.640773 0.41741 0.626045
933 2 0.644212 0.359198 0.615427
642 2 0.694474 0.439788 0.638408
527 1 0.705141 0.342296 0.620606
457 2 0.735179 0.332002 0.639566
771 1 0.715006 0.274879 0.646129
1130 2 0.574765 0.435798 0.629961
641 1 0.559829 0.414802 0.648793
463 2 0.551651 0.282644 0.62571
1009 1 0.60571 0.319289 0.626908
193 1 0.543895 0.404424 0.6139
471 1 0.677567 0.493684 0.648697
675 1 0.74593 0.452215 0.625561
600 1 0.556963 0.498443 0.627253
498 1 0.982914 0.414342 0.602296
337 5 0.971293 0.401149 0.635864
1182 5 0.906207 0.28335 0.672235
1080 2 0.872283 0.385124 0.601515
972 1 0.847659 0.44635 0.605957
1040 1 0.8968 0.363526 0.657459
963 1 0.838405 0.43444 0.63978
569 1 0.800899 0.339315 0.639664
65 1 0.887956 0.363835 0.621364