ITEM: TIMESTEP
1900
ITEM: NUMBER OF ATOMS
1200
ITEM: BOX BOUNDS pp pp pp
-7.6266250050336382e-02 2.5098596345622489e+01
-7.6266250050336382e-02 2.5098596345622489e+01
-2.5251128845723162e+01 5.0273458941295317e+01
ITEM: ATOMS id type xs ys zs
760 1 0.0692498 0.14442 0.39474
419 1 0.229306 0.158349 0.375469
108 1 0.228235 0.0586058 0.35806
96 1 0.0366607 0.0530251 0.384349
635 5 0.341988 0.215682 0.332471
1076 1 0.179732 0.130055 0.341157
1193 1 0.112005 0.0912902 0.365088
580 5 0.167169 0.226583 0.36855
269 2 0.0158121 0.234931 0.328416
638 5 0.152334 0.167914 0.309964
390 2 0.0891317 0.0896847 0.384348
645 3 0.161487 0.0699166 0.351226
967 1 0.0669125 0.214716 0.317943
542 1 0.139572 0.0721509 0.396116
804 1 0.22957 0.0103925 0.389811
1149 3 0.241185 0.128743 0.355037
787 1 0.406761 0.243487 0.352456
314 1 0.452246 0.177388 0.384996
590 2 0.483444 0.233366 0.383807
559 1 0.429044 0.0355832 0.356636
973 5 0.41839 0.13797 0.346566
468 2 0.401724 0.148023 0.393604
1174 1 0.30322 0.138772 0.346058
1037 1 0.382445 0.0997127 0.381196
432 5 0.340489 0.191687 0.366898
196 2 0.390632 0.0398175 0.373657
762 1 0.136648 0.00543318 0.348545
465 1 0.330126 0.0148759 0.37192
907 1 0.423016 0.00585889 0.38854
290 1 0.35779 0.191918 0.39795
1146 5 0.00929715 0.21289 0.376599
26 5 0.260869 0.443153 0.325045
577 2 0.0826107 0.457272 0.36448
82 1 0.192178 0.310372 0.351595
1173 1 0.0456332 0.30788 0.393531
40 5 0.115002 0.311079 0.333715
813 1 0.017865 0.447814 0.36827
403 5 0.141694 0.349497 0.375552
1071 1 0.249037 0.334092 0.379181
834 1 0.111864 0.466017 0.383942
418 1 0.021429 0.292668 0.337754
915 1 0.103825 0.407835 0.353782
904 5 0.0066668 0.338117 0.363722
456 1 0.470295 0.340001 0.350347
917 2 0.430791 0.489065 0.391467
935 2 0.436217 0.289447 0.341009
893 5 0.327612 0.279392 0.386906
460 1 0.371559 0.432085 0.341888
1053 1 0.291242 0.356211 0.346925
565 5 0.278463 0.429894 0.38306
346 2 0.252322 0.314695 0.358431
703 2 0.409587 0.474288 0.353448
241 1 0.442702 0.289363 0.382779
373 1 0.393991 0.470156 0.374175
1171 1 0.468616 0.450456 0.350919
409 1 0.473384 0.390691 0.38058
1159 2 0.421768 0.351925 0.383268
412 2 0.357448 0.367399 0.346553
628 1 0.38647 0.325732 0.333165
660 1 0.284717 0.260347 0.358006
151 1 0.381409 0.362971 0.366782
624 3 0.495081 0.0089301 0.355578
793 3 0.261108 0.00533118 0.369158
929 1 0.484281 0.259312 0.331476
575 1 0.211327 0.493466 0.390169
533 1 0.142273 0.270759 0.399176
397 2 0.0235535 0.227337 0.472095
885 5 0.190763 0.22626 0.470528
1185 5 0.124119 0.150898 0.484333
88 1 0.0193817 0.167496 0.479551
28 1 0.210241 0.121304 0.492387
62 5 0.249673 0.0373582 0.443807
953 5 0.0954245 0.046192 0.427957
1060 5 0.128329 0.228149 0.439141
137 5 0.190533 0.108567 0.444117
377 2 0.0599058 0.162181 0.415653
537 1 0.225968 0.0697425 0.417818
15 5 0.0652378 0.0528603 0.46824
353 1 0.0591243 0.225801 0.415556
1024 1 0.106101 0.139833 0.428088
1070 2 0.190338 0.0380841 0.404024
20 1 0.153674 0.0249835 0.454764
991 5 0.338442 0.11854 0.59316
372 1 0.358631 0.320243 0.596893
472 1 0.263193 0.0343211 0.477782
75 1 0.313239 0.114628 0.494964
375 2 0.262066 0.0974825 0.4821
206 1 0.257608 0.238427 0.495394
407 1 0.480676 0.220388 0.493672
247 5 0.425775 0.0987752 0.476905
378 2 0.463166 0.0302009 0.447329
516 1 0.457845 0.0942778 0.44679
406 1 0.468671 0.187394 0.429022
91 1 0.420385 0.117987 0.412249
920 2 0.465788 0.122434 0.427468
211 5 0.345892 0.0460548 0.411986
858 1 0.27081 0.180528 0.432354
443 2 0.306205 0.147726 0.446579
14 1 0.329169 0.0914131 0.439591
322 5 0.372059 0.239706 0.427513
968 1 0.264844 0.130834 0.463492
72 1 0.352264 0.187661 0.453612
32 5 0.28176 0.275571 0.445858
922 5 0.336769 0.222608 0.481856
706 1 0.42622 0.490729 0.561939
545 2 0.223752 0.0069926 0.521168
69 2 0.22732 0.202013 0.598962
977 1 0.276532 0.276503 0.527773
640 1 0.04552 0.0119833 0.569558
1017 1 0.0839307 0.237478 0.466423
535 1 0.27769 0.439858 0.527506
880 1 0.498109 0.427234 0.471992
779 5 0.130206 0.445684 0.474513
227 1 0.445614 0.289296 0.580006
242 1 0.00703268 0.268963 0.488301
754 1 0.0281331 0.445645 0.469987
78 5 0.145781 0.312082 0.480842
34 1 0.227332 0.42962 0.479038
663 1 0.10545 0.366458 0.457162
1079 5 0.23525 0.423633 0.41193
435 1 0.180745 0.308918 0.444
871 3 0.00693886 0.43412 0.491838
208 1 0.218242 0.492345 0.438313
827 1 0.0914495 0.316073 0.426595
689 2 0.131583 0.350836 0.438745
722 1 0.0896888 0.471069 0.441861
1128 2 0.0283536 0.458815 0.448566
249 2 0.0848969 0.281169 0.40808
265 1 0.158236 0.394812 0.425748
741 5 0.0777313 0.426441 0.412818
188 5 0.222442 0.311867 0.408318
382 5 0.226523 0.207545 0.401494
746 1 0.00130587 0.143943 0.4225
998 1 0.390499 0.364543 0.401637
102 5 0.480057 0.367732 0.444656
1078 1 0.376654 0.413895 0.47103
564 2 0.370656 0.367585 0.485536
139 5 0.256144 0.338573 0.491949
547 1 0.306941 0.488484 0.495579
561 1 0.344537 0.315015 0.477313
256 2 0.250146 0.48656 0.486208
447 2 0.477264 0.406047 0.491339
4 1 0.432877 0.358442 0.49216
204 1 0.45452 0.458879 0.501171
608 1 0.449942 0.463841 0.409646
696 5 0.436702 0.257267 0.459011
996 1 0.459089 0.292246 0.427067
1039 5 0.24407 0.388508 0.448481
109 1 0.312687 0.341871 0.423428
694 1 0.311565 0.459742 0.45034
494 2 0.358004 0.385877 0.418717
308 1 0.390946 0.399537 0.437792
633 1 0.329704 0.440133 0.413011
410 2 0.373206 0.44428 0.45172
340 1 0.372517 0.491225 0.591722
966 1 0.379554 0.448708 0.532574
784 2 0.434933 0.463338 0.542408
348 5 0.489318 0.334678 0.556065
550 1 0.137406 0.118121 0.517978
574 5 0.0488874 0.110512 0.504125
1155 1 0.14093 0.222872 0.503767
520 2 0.198759 0.124693 0.513605
811 1 0.232807 0.0730329 0.52052
643 1 0.222509 0.180757 0.522471
785 1 0.108105 0.0954331 0.582288
857 1 0.202571 0.0566617 0.580204
303 1 0.478416 0.41591 0.54039
114 2 0.23906 0.0144279 0.591348
1089 1 0.00852032 0.0794393 0.593362
1006 1 0.0548302 0.130737 0.543369
738 3 0.0773894 0.218301 0.591464
647 2 0.166646 0.113201 0.575647
192 1 0.165312 0.122145 0.553909
632 1 0.0182489 0.180931 0.586797
897 2 0.0616084 0.0504579 0.586022
826 3 0.116408 0.101489 0.539217
680 1 0.105758 0.0335244 0.544778
548 1 0.193314 0.161149 0.586511
803 5 0.207393 0.208265 0.553496
219 1 0.109434 0.22657 0.570522
10 1 0.273283 0.224463 0.585461
558 5 0.270872 0.316693 0.595152
100 2 0.333533 0.411511 0.524242
479 1 0.453858 0.0089653 0.427363
296 1 0.0653858 0.0175109 0.499841
23 1 0.350859 0.0876228 0.528607
298 2 0.268534 0.223048 0.51582
101 1 0.322896 0.18719 0.518886
854 2 0.347566 0.130907 0.51308
470 2 0.458817 0.183831 0.509507
413 1 0.4374 0.220115 0.525807
684 1 0.490945 0.0186 0.524838
833 1 0.408581 0.142995 0.504974
81 1 0.413848 0.0255028 0.589393
961 2 0.444152 0.0814041 0.586653
900 3 0.438507 0.221454 0.587942
945 5 0.476941 0.181833 0.551684
42 1 0.497062 0.193478 0.582894
1161 1 0.425872 0.110354 0.568789
1066 5 0.38317 0.159419 0.547558
596 1 0.296337 0.168733 0.557928
1199 2 0.318425 0.217322 0.569904
220 1 0.299155 0.0137164 0.583631
646 5 0.258613 0.0845729 0.554422
837 5 0.36066 0.0393824 0.556695
438 1 0.378836 0.203009 0.578032
1117 5 0.111217 0.3581 0.595417
518 1 0.0614156 0.283842 0.598799
1001 2 0.134383 0.275461 0.515633
92 1 0.0758921 0.302495 0.512234
916 1 0.0454091 0.471642 0.507704
605 1 0.179309 0.31989 0.513759
424 2 0.0153032 0.307782 0.505073
798 5 0.192482 0.411532 0.512403
1013 1 0.343465 0.384338 0.504791
317 3 0.227433 0.460448 0.586409
611 1 0.23575 0.337151 0.554057
215 1 0.193263 0.410592 0.574408
367 5 0.059177 0.393621 0.535318
366 1 0.0487756 0.296754 0.55215
759 1 0.138105 0.324471 0.565292
231 2 0.10787 0.274454 0.556027
153 1 0.13316 0.259826 0.536881
395 5 0.357284 0.0123616 0.511072
127 1 0.154415 0.399982 0.542321
352 1 0.0697643 0.462292 0.59524
174 2 0.1813 0.369601 0.558838
439 5 0.105801 0.46233 0.564444
364 1 0.0066682 0.37091 0.500458
652 5 0.419542 0.293221 0.546913
170 1 0.0177217 0.00500078 0.414558
1099 1 0.401802 0.379073 0.568957
342 5 0.163881 0.496392 0.536278
812 2 0.410135 0.343337 0.586858
1118 1 0.284624 0.426825 0.59512
943 5 0.462346 0.307296 0.51995
1057 1 0.319986 0.273483 0.558857
1194 5 0.327535 0.43613 0.565493
861 1 0.479447 0.484145 0.595932
105 2 0.288453 0.313695 0.544824
1105 1 0.328706 0.358611 0.537533
786 2 0.00267345 0.462003 0.593813
851 1 0.409197 0.497095 0.452741
487 5 0.492659 0.0725206 0.549867
130 5 0.00648045 0.33817 0.579639
557 2 0.499291 0.243774 0.424913
309 5 0.281837 0.133803 0.402311
86 1 0.4224 0.00324507 0.461432
123 1 0.247631 0.158001 0.646818
610 1 0.254018 0.167767 0.614532
1131 5 0.142666 0.0203307 0.672596
142 1 0.18017 0.110968 0.672169
711 5 0.114246 0.0508223 0.632569
700 1 0.144537 0.145731 0.640329
359 1 0.209848 0.0637628 0.64368
1126 1 0.10372 0.188028 0.610915
47 2 0.108265 0.193387 0.632404
94 1 0.0501911 0.199619 0.641661
230 2 0.194223 0.123994 0.652386
909 5 0.0519443 0.295555 0.658588
986 1 0.24391 0.0369239 0.611778
50 5 0.104867 0.476822 0.662182
1150 1 0.443977 0.40599 0.635868
1094 2 0.260792 0.0415618 0.632644
1072 1 0.451548 0.171025 0.638694
753 1 0.475983 0.062391 0.635388
209 1 0.439167 0.227774 0.611088
255 1 0.347721 0.186976 0.627507
365 1 0.30743 0.0881836 0.631463
111 2 0.409658 0.214374 0.629778
651 2 0.294413 0.154404 0.631983
415 1 0.429303 0.117098 0.603742
525 2 0.478345 0.37246 0.620489
1042 2 0.49395 0.12387 0.632423
1085 2 0.119893 0.486175 0.60866
344 1 0.447315 0.374882 0.601241
458 1 0.138418 0.250455 0.636015
51 1 0.173925 0.398091 0.650495
343 1 0.239974 0.288607 0.633477
1114 2 0.180482 0.28682 0.624728
1145 1 0.0714878 0.373456 0.642325
1183 5 0.275868 0.348688 0.657557
870 1 0.152765 0.344973 0.621989
631 1 0.117256 0.449267 0.626227
1069 2 0.128111 0.390756 0.635432
639 5 0.239857 0.477375 0.649075
551 1 0.192355 0.252567 0.606543
136 5 0.00265507 0.330387 0.618167
1000 1 0.352698 0.403976 0.654535
54 1 0.403409 0.497591 0.647997
71 2 0.389935 0.438676 0.640828
999 1 0.400163 0.264886 0.64247
31 5 0.331473 0.324742 0.630803
607 2 0.325341 0.467757 0.605102
202 5 0.458214 0.316231 0.662954
956 1 0.357657 0.444738 0.622
556 1 0.178427 0.478215 0.601021
524 1 0.497423 0.313015 0.624691
1111 1 0.0831651 0.00818837 0.601318
1103 2 0.466715 0.00125497 0.640391
370 1 0.0917327 0.516872 0.355352
388 1 0.231651 0.733278 0.390716
1136 1 0.188816 0.712784 0.359476
853 5 0.0893558 0.799746 0.387458
634 2 0.499499 0.908616 0.38129
1101 1 0.140794 0.56297 0.382367
763 1 0.0929115 0.75197 0.359902
708 1 0.112277 0.637765 0.358462
85 1 0.0316492 0.574823 0.377368
839 2 0.128948 0.701903 0.365246
572 2 0.152656 0.507578 0.393673
1144 3 0.092098 0.578018 0.366148
919 1 0.398512 0.541847 0.397126
1135 1 0.11386 0.696282 0.387283
429 5 0.203295 0.628107 0.384543
734 5 0.317579 0.691873 0.383515
1186 1 0.496367 0.944381 0.363769
1033 1 0.406239 0.642231 0.339559
1064 1 0.475431 0.597818 0.361755
918 1 0.399786 0.539717 0.349659
715 2 0.412958 0.600554 0.355569
579 1 0.378025 0.612949 0.373539
124 2 0.390362 0.605724 0.394112
668 5 0.497869 0.686924 0.336183
84 3 0.2324 0.757618 0.370187
9 1 0.483169 0.515827 0.381158
1122 1 0.240481 0.940653 0.362999
1088 2 0.205773 0.889752 0.369576
286 1 0.223006 0.828334 0.368465
797 1 0.189821 0.901841 0.39216
89 1 0.148407 0.899182 0.360055
750 5 0.266622 0.82735 0.339763
416 1 0.049581 0.942435 0.354598
6 5 0.0563482 0.848329 0.362072
519 2 0.111084 0.956891 0.359333
747 1 0.116342 0.967651 0.381193
500 5 0.463208 0.929293 0.332292
679 1 0.289231 0.897644 0.391614
404 1 0.300843 0.755461 0.364126
176 5 0.375532 0.725513 0.345595
697 5 0.363639 0.929197 0.378361
758 1 0.442025 0.879264 0.381069
52 5 0.345358 0.821791 0.388519
422 5 0.018507 0.684845 0.352463
815 2 0.134268 0.940095 0.399515
598 1 0.444773 0.63526 0.399358
1007 1 0.16732 0.598817 0.48229
12 5 0.0920245 0.717963 0.482352
1157 1 0.0955127 0.648154 0.464103
844 2 0.238048 0.759275 0.489358
531 1 0.215727 0.731446 0.428667
718 1 0.248179 0.635453 0.42303
620 2 0.200674 0.670186 0.431221
135 1 0.191583 0.653651 0.45261
1058 1 0.143985 0.655925 0.420214
670 1 0.140692 0.56196 0.45014
444 1 0.138945 0.516998 0.414169
877 1 0.446257 0.992643 0.495152
994 5 0.0398715 0.61056 0.438634
446 1 0.042389 0.654283 0.410071
1137 2 0.0990851 0.687506 0.408521
1169 2 0.149865 0.615032 0.462338
221 2 0.293704 0.821278 0.581201
11 1 0.174614 0.753187 0.49196
685 2 0.0196965 0.507091 0.523942
1112 3 0.197562 0.580294 0.501322
310 5 0.302627 0.931297 0.551721
739 5 0.0514578 0.551847 0.409933
45 1 0.205483 0.511304 0.499853
1083 1 0.329208 0.634966 0.475639
213 5 0.36285 0.539865 0.478456
1002 1 0.257483 0.52811 0.468654
1018 2 0.30201 0.647451 0.494506
349 1 0.268643 0.703701 0.493671
1197 2 0.450105 0.74939 0.467969
749 1 0.397116 0.709946 0.46701
554 5 0.444489 0.663232 0.493006
238 1 0.471861 0.557502 0.429262
501 5 0.472431 0.660437 0.431885
499 1 0.414799 0.731237 0.427239
528 1 0.416938 0.611255 0.458615
1049 3 0.449836 0.553684 0.451306
1031 1 0.333045 0.65421 0.441901
789 1 0.301603 0.55763 0.437651
562 1 0.320576 0.74481 0.411088
847 1 0.340322 0.617032 0.408601
911 2 0.30944 0.614708 0.427419
740 2 0.27138 0.509999 0.447979
1038 2 0.368463 0.655748 0.459879
1156 3 0.250886 0.758877 0.411046
637 1 0.153443 0.98665 0.412819
426 1 0.071602 0.851162 0.465789
1087 1 0.132357 0.960398 0.480559
167 5 0.134449 0.856565 0.492932
374 1 0.245134 0.906407 0.486432
705 2 0.239975 0.914886 0.445271
603 1 0.24145 0.927625 0.423969
475 5 0.0207126 0.919945 0.429067
823 5 0.153762 0.773086 0.453712
180 5 0.114546 0.867179 0.435846
35 1 0.0898453 0.74514 0.417812
594 1 0.178543 0.922525 0.451521
988 2 0.134673 0.964674 0.459223
252 1 0.0137662 0.932059 0.484479
892 1 0.0735454 0.960619 0.450895
997 5 0.036296 0.791042 0.439929
334 1 0.094675 0.897192 0.406708
434 1 0.256942 0.810347 0.500405
234 3 0.358057 0.983672 0.591928
592 1 0.369706 0.846046 0.539257
70 2 0.0197304 0.872037 0.476663
952 2 0.430428 0.506054 0.583022
257 3 0.00203807 0.995608 0.492787
183 2 0.244236 0.890203 0.406106
941 1 0.349229 0.964105 0.48286
764 1 0.33823 0.830985 0.472533
881 1 0.252063 0.770527 0.468608
1015 3 0.281091 0.965329 0.480199
294 1 0.436758 0.907458 0.475742
293 1 0.456154 0.768415 0.489205
1062 5 0.459637 0.814323 0.401601
874 2 0.412353 0.965795 0.479717
140 1 0.37981 0.825588 0.419077
699 1 0.397107 0.929967 0.413859
958 3 0.400961 0.858144 0.464923
325 1 0.438989 0.803617 0.457057
277 1 0.471653 0.869547 0.427203
898 3 0.451516 0.971618 0.407317
356 2 0.40865 0.880078 0.426619
1034 1 0.380815 0.890311 0.445535
226 1 0.279144 0.953443 0.456174
138 1 0.330707 0.772778 0.444697
513 2 0.297233 0.807538 0.458834
980 5 0.350873 0.980638 0.43888
144 2 0.36205 0.766063 0.425833
942 1 0.265581 0.85559 0.448498
386 1 0.240542 0.826613 0.410816
318 1 0.0128688 0.833366 0.494193
1189 5 0.137963 0.697965 0.516685
549 1 0.0641439 0.666885 0.531977
1147 5 0.0830251 0.595347 0.51222
665 2 0.0166083 0.710793 0.529497
657 1 0.172209 0.59297 0.521583
618 5 0.262621 0.532337 0.52349
655 5 0.229456 0.661363 0.537724
120 1 0.234545 0.604363 0.565815
910 5 0.123252 0.609712 0.545898
182 1 0.156187 0.537537 0.568503
39 1 0.0642509 0.52884 0.537713
616 1 0.0223522 0.640011 0.577942
506 1 0.133898 0.631499 0.577545
1142 5 0.0242035 0.547813 0.56695
820 2 0.0793926 0.662164 0.584204
751 1 0.162449 0.729718 0.550599
145 1 0.0824738 0.721712 0.575317
1061 2 0.183927 0.585889 0.578099
544 1 0.209522 0.585973 0.598232
7 1 0.0187106 0.735973 0.509719
178 1 0.497018 0.696425 0.554133
307 2 0.364479 0.702892 0.525685
678 1 0.347514 0.661601 0.509901
568 5 0.344611 0.554491 0.517202
168 1 0.263415 0.60086 0.501625
978 2 0.464103 0.519789 0.507867
283 1 0.397598 0.752341 0.516941
387 1 0.422356 0.562771 0.501223
581 1 0.411936 0.673906 0.536573
902 1 0.406194 0.67598 0.571654
181 1 0.437321 0.572211 0.583762
1170 2 0.433413 0.703313 0.555202
541 5 0.409027 0.58028 0.548843
281 1 0.315845 0.560995 0.547783
79 1 0.313905 0.715448 0.537992
1 1 0.329894 0.593343 0.579414
143 1 0.262408 0.50877 0.573647
1028 3 0.392469 0.62381 0.585733
534 2 0.287004 0.565475 0.566108
886 5 0.256966 0.707345 0.565235
268 1 0.459919 0.514409 0.529953
1023 1 0.288588 0.87347 0.594233
862 1 0.0134349 0.975629 0.537912
949 5 0.0169781 0.879262 0.523032
490 5 0.11918 0.846377 0.532147
1050 1 0.0945622 0.921122 0.511396
805 5 0.495437 0.782411 0.432915
576 2 0.115159 0.974374 0.501175
246 1 0.210526 0.878882 0.519957
702 1 0.0205488 0.759255 0.542697
841 5 0.251251 0.795241 0.534335
1116 1 0.217432 0.953214 0.591468
1141 1 0.226246 0.990604 0.541935
262 1 0.168695 0.75476 0.585045
727 3 0.0784553 0.879452 0.566354
860 2 0.0636159 0.986963 0.550296
451 5 0.163784 0.978733 0.565909
405 1 0.0809897 0.912259 0.585512
765 1 0.113999 0.82043 0.563341
399 5 0.193144 0.897731 0.549175
376 1 0.0968083 0.930522 0.551775
482 1 0.0158153 0.85594 0.558777
567 2 0.130927 0.756767 0.567211
816 1 0.25847 0.833032 0.563691
1115 1 0.282457 0.764763 0.590526
1113 1 0.493331 0.805466 0.520653
1011 2 0.257951 0.87405 0.505038
1184 1 0.317739 0.884192 0.513063
495 1 0.401409 0.939135 0.528158
1093 2 0.37688 0.884087 0.520924
41 1 0.268786 0.980613 0.509265
511 1 0.412216 0.849768 0.506732
83 2 0.44173 0.79177 0.50863
368 2 0.396855 0.825147 0.557936
414 1 0.459359 0.972829 0.557721
719 3 0.464008 0.962326 0.534283
1095 1 0.4547 0.769385 0.588189
315 1 0.419996 0.766145 0.552941
484 1 0.43937 0.87277 0.56172
450 2 0.43399 0.93095 0.57149
360 1 0.447514 0.920991 0.592495
731 1 0.356411 0.823529 0.574565
905 1 0.370381 0.944634 0.573107
462 5 0.498503 0.619564 0.52875
398 5 0.0076373 0.670602 0.457112
445 3 0.149571 0.502324 0.436993
993 5 0.00232682 0.88696 0.400406
521 1 0.193988 0.847031 0.59871
985 5 0.296194 0.51763 0.400897
474 1 0.165924 0.999368 0.51166
1077 3 0.496746 0.500297 0.420978
913 5 0.129784 0.678811 0.671194
68 1 0.224235 0.561833 0.633423
852 2 0.246648 0.693069 0.666167
908 1 0.354905 0.900837 0.639978
329 1 0.221141 0.636326 0.659194
950 2 0.18784 0.59406 0.648086
710 1 0.221584 0.740492 0.652293
1166 1 0.221634 0.707677 0.684946
627 1 0.0589385 0.602167 0.66549
819 1 0.088299 0.658198 0.605466
1020 1 0.0501804 0.758598 0.636097
609 2 0.0946349 0.61161 0.620828
704 1 0.161676 0.547963 0.660128
891 1 0.106493 0.550891 0.611718
455 1 0.144173 0.622464 0.634176
955 1 0.0388853 0.602345 0.631368
393 5 0.124827 0.558519 0.688052
906 2 0.0167861 0.580876 0.650762
1104 1 0.0230805 0.516645 0.648128
99 2 0.4931 0.932031 0.606704
282 5 0.498172 0.6443 0.62462
459 1 0.0447896 0.725842 0.67089
437 5 0.301311 0.707237 0.701816
483 1 0.465015 0.553271 0.625748
1008 1 0.417216 0.724136 0.651568
1191 1 0.475774 0.743875 0.621848
1074 2 0.426101 0.559204 0.644196
106 1 0.464503 0.581914 0.659424
119 1 0.38725 0.652446 0.607167
125 1 0.311745 0.691762 0.666801
1125 2 0.252931 0.57045 0.613999
186 2 0.351868 0.725803 0.653407
923 1 0.290899 0.622639 0.617528
733 1 0.289027 0.517859 0.610885
927 1 0.334566 0.700437 0.633824
363 1 0.378695 0.600134 0.637344
129 2 0.350143 0.644539 0.624126
1180 5 0.368413 0.750315 0.601699
132 1 0.339026 0.78938 0.65915
867 5 0.384785 0.855415 0.605888
931 1 0.289924 0.989565 0.641028
937 3 0.244283 0.934709 0.644009
442 2 0.23227 0.898008 0.601644
1167 2 0.213723 0.791112 0.639544
588 1 0.190445 0.767631 0.620116
653 1 0.242139 0.915625 0.621564
80 1 0.170436 0.840474 0.642009
712 1 0.0969235 0.801795 0.606246
1067 2 0.16197 0.791234 0.601882
502 2 0.0224195 0.874628 0.647205
802 2 0.045638 0.79204 0.617288
244 3 0.135811 0.901117 0.639619
324 1 0.177686 0.95341 0.648128
1124 2 0.0712225 0.944189 0.603767
1003 1 0.077483 0.901778 0.652847
60 1 0.113657 0.922912 0.618359
345 1 0.0271423 0.849083 0.627441
1123 1 0.354058 0.970461 0.613766
205 5 0.333335 0.867122 0.681386
104 5 0.170452 0.893766 0.673919
177 3 0.336076 0.835878 0.641351
217 1 0.272195 0.81304 0.634209
960 1 0.26174 0.892051 0.660019
1110 2 0.351718 0.963689 0.635167
1014 1 0.401359 0.995796 0.644079
1106 1 0.394475 0.803347 0.631675
338 1 0.484818 0.803867 0.650523
838 1 0.470411 0.957718 0.624797
491 2 0.444998 0.770417 0.63863
1046 1 0.00886223 0.941569 0.606191
440 5 0.243602 0.694132 0.605304
1065 2 0.0136965 0.756569 0.655344
425 1 0.0116251 0.821571 0.658736
17 2 0.499893 0.745427 0.601372
285 1 0.693388 0.142722 0.392051
725 1 0.641213 0.0658016 0.367013
464 1 0.695477 0.124869 0.345387
1178 2 0.697785 0.192735 0.379085
1092 2 0.694343 0.065775 0.354357
810 1 0.747746 0.0596159 0.366575
1016 5 0.573623 0.146105 0.368457
321 1 0.540254 0.0460334 0.368414
934 1 0.51623 0.234001 0.364938
1148 2 0.596687 0.0306255 0.377516
517 5 0.708083 0.013958 0.398824
328 2 0.524876 0.223305 0.343164
688 1 0.691973 0.232624 0.337338
840 1 0.594071 0.0521778 0.398479
984 1 0.647735 0.21542 0.367055
121 5 0.553795 0.0831638 0.328179
267 1 0.587124 0.230693 0.338958
799 2 0.745669 0.299188 0.3942
903 1 0.689644 0.0216983 0.339429
807 5 0.569701 0.427655 0.323167
1026 1 0.752009 0.190119 0.365833
216 1 0.659226 0.499092 0.365074
1073 2 0.811383 0.0611951 0.372657
818 2 0.841728 0.110363 0.335162
330 1 0.899663 0.142129 0.331839
540 5 0.850473 0.171301 0.377268
957 1 0.936924 0.0443588 0.395714
992 5 0.97559 0.102682 0.357317
288 2 0.932387 0.19655 0.333216
1068 1 0.795022 0.155768 0.333857
990 1 0.840659 0.0915007 0.356243
107 1 0.836423 0.0601674 0.322201
585 3 0.736569 0.182215 0.342955
389 1 0.959745 0.228587 0.317325
341 1 0.926714 0.418941 0.383041
1163 1 0.819552 0.0931706 0.392097
1045 1 0.817132 0.306715 0.356335
690 3 0.502052 0.397806 0.359835
555 1 0.754849 0.397505 0.34707
497 5 0.72633 0.475435 0.33241
428 1 0.632587 0.499291 0.332221
940 1 0.5746 0.333023 0.382169
729 1 0.638773 0.312916 0.35595
16 2 0.642808 0.251592 0.348297
396 1 0.741152 0.452246 0.382316
254 2 0.678235 0.461075 0.381317
77 1 0.647399 0.405096 0.376326
774 1 0.565718 0.391323 0.35389
1192 2 0.607742 0.361166 0.366694
159 2 0.994114 0.0162805 0.394682
477 5 0.989168 0.385322 0.335827
822 5 0.5995 0.252404 0.395921
732 2 0.803182 0.44429 0.385293
676 1 0.742533 0.336305 0.376683
692 2 0.77984 0.358114 0.360999
745 3 0.893929 0.402372 0.364082
1010 1 0.891711 0.264871 0.378541
1096 1 0.70779 0.246612 0.392126
436 1 0.899228 0.441231 0.346192
299 1 0.914777 0.339076 0.35736
1200 1 0.826497 0.395945 0.372297
261 1 0.896559 0.242512 0.344817
947 2 0.878465 0.288295 0.359129
686 2 0.970977 0.467436 0.38272
835 1 0.96012 0.0133868 0.348126
921 5 0.927586 0.0461641 0.314999
614 1 0.990395 0.193497 0.344795
297 1 0.809243 0.284539 0.397998
757 1 0.506401 0.162776 0.339216
467 2 0.869705 0.268067 0.399146
385 5 0.757356 0.009621 0.316721
1019 5 0.545175 0.111075 0.463099
1030 2 0.533525 0.254883 0.487134
146 1 0.572743 0.205109 0.481012
691 1 0.628369 0.119462 0.488468
713 1 0.649889 0.0203888 0.497241
613 2 0.632696 0.17666 0.479009
179 1 0.680871 0.209562 0.488416
469 5 0.73795 0.0425453 0.477627
783 1 0.672478 0.0538152 0.453524
2 1 0.623987 0.105146 0.427686
454 1 0.643868 0.158659 0.458249
401 5 0.737566 0.207161 0.458388
128 5 0.600712 0.0126966 0.469339
489 1 0.722041 0.133776 0.437567
864 2 0.667057 0.110704 0.444368
795 5 0.680693 0.187734 0.417161
3 2 0.58256 0.10323 0.411248
30 1 0.522547 0.0992221 0.419257
115 1 0.510235 0.242483 0.403056
944 1 0.643506 0.492613 0.598292
172 1 0.660043 0.491913 0.540462
736 5 0.824477 0.0320142 0.595684
530 3 0.94166 0.471827 0.556114
770 1 0.523213 0.0125973 0.453596
693 5 0.768638 0.25044 0.48754
478 1 0.783128 0.12928 0.476089
682 5 0.944178 0.110829 0.492838
253 5 0.87818 0.029778 0.46998
622 2 0.839667 0.161446 0.474349
493 5 0.909778 0.126061 0.411442
116 1 0.865151 0.170269 0.49411
199 5 0.855439 0.0210001 0.410348
683 1 0.977763 0.240485 0.457288
782 1 0.831676 0.220342 0.465646
582 5 0.91939 0.191528 0.436439
1179 5 0.969965 0.109617 0.456266
522 5 0.771713 0.157872 0.412288
214 1 0.875664 0.21099 0.408348
829 1 0.880355 0.12986 0.461649
95 5 0.80838 0.0966341 0.442761
672 1 0.754505 0.252095 0.429666
737 2 0.76272 0.380969 0.582941
218 5 0.58289 0.366036 0.472786
1052 5 0.696851 0.307026 0.482023
1168 5 0.724339 0.443123 0.489092
546 2 0.598432 0.289721 0.4437
721 5 0.628752 0.364462 0.409755
593 3 0.651176 0.485016 0.454565
433 1 0.715416 0.332912 0.445953
312 1 0.647263 0.275815 0.428869
1004 2 0.740584 0.387146 0.453049
44 2 0.708894 0.29637 0.42883
57 1 0.625288 0.28029 0.462759
37 1 0.719155 0.33109 0.41091
669 1 0.697026 0.433574 0.457353
767 1 0.593102 0.468049 0.466199
586 1 0.583205 0.350913 0.439653
536 1 0.518378 0.461447 0.439157
1133 1 0.549842 0.249388 0.438502
863 2 0.53037 0.472591 0.460167
591 5 0.971021 0.379692 0.408038
1044 1 0.580181 0.00876364 0.568619
976 5 0.507866 0.374046 0.408235
250 2 0.541306 0.17914 0.597042
1091 1 0.773554 0.370457 0.470731
761 3 0.834769 0.376254 0.48165
476 5 0.902902 0.266837 0.485086
357 2 0.8828 0.485052 0.494895
263 1 0.890946 0.359109 0.469857
1138 1 0.942121 0.460498 0.491791
735 1 0.835407 0.442802 0.489602
636 1 0.855761 0.483395 0.43559
674 1 0.815745 0.429036 0.406101
64 2 0.803746 0.454669 0.425517
131 1 0.897081 0.312978 0.411632
1021 5 0.84617 0.282734 0.43981
1190 5 0.907801 0.383324 0.434193
1035 5 0.908913 0.453544 0.458251
103 1 0.784412 0.408161 0.438351
200 2 0.992753 0.147669 0.544526
392 1 0.999219 0.409057 0.439181
604 5 0.988371 0.283189 0.427511
1121 2 0.568547 0.14176 0.527162
801 1 0.552507 0.488491 0.548513
164 1 0.591256 0.0852645 0.519661
58 1 0.692051 0.0999923 0.51765
901 2 0.642491 0.080145 0.505706
304 1 0.602017 0.194695 0.522113
1041 1 0.568342 0.141439 0.549293
936 1 0.714953 0.034721 0.589878
1139 1 0.653349 0.0973691 0.567035
53 1 0.69401 0.137279 0.595128
626 2 0.613927 0.149489 0.565035
210 5 0.744597 0.050341 0.541772
339 2 0.704121 0.0904434 0.580577
43 5 0.697058 0.206309 0.5226
369 1 0.642955 0.204315 0.560777
971 1 0.689435 0.240757 0.590116
830 1 0.589383 0.157069 0.584641
350 2 0.555317 0.0284878 0.58751
687 1 0.510838 0.069516 0.491506
1195 1 0.507314 0.0694008 0.585024
394 1 0.974705 0.034344 0.475995
1154 5 0.785363 0.123913 0.51045
515 5 0.874599 0.105463 0.517918
408 1 0.958913 0.130393 0.527112
384 5 0.896765 0.218457 0.520582
224 1 0.808713 0.0381306 0.518714
1198 1 0.811246 0.180822 0.550718
157 1 0.916637 0.0392209 0.581787
1005 1 0.85302 0.0879013 0.559485
332 1 0.966992 0.125061 0.563621
1187 2 0.88569 0.0329147 0.563148
809 2 0.976786 0.132024 0.585003
118 2 0.813129 0.136116 0.565927
147 1 0.918859 0.0078204 0.546199
570 1 0.926024 0.155115 0.595954
466 1 0.51609 0.299886 0.472786
273 1 0.821005 0.16936 0.584666
228 1 0.758167 0.105557 0.56992
336 1 0.871269 0.499034 0.515559
430 5 0.796943 0.276362 0.594023
677 1 0.983632 0.211243 0.54555
1109 1 0.507213 0.150448 0.519725
73 2 0.590603 0.259017 0.523754
152 1 0.62685 0.369628 0.595715
895 1 0.535314 0.393213 0.501716
427 2 0.594185 0.408495 0.510204
509 1 0.587118 0.394964 0.531202
878 1 0.56035 0.276224 0.505685
924 1 0.598856 0.472067 0.508224
235 1 0.645866 0.290316 0.526912
279 1 0.641958 0.373542 0.501864
266 1 0.981647 0.47066 0.537024
948 3 0.682657 0.345636 0.51883
431 2 0.68367 0.46967 0.583419
379 2 0.714828 0.46954 0.532176
720 1 0.738662 0.258376 0.558351
890 1 0.729386 0.429761 0.591305
831 2 0.626103 0.372939 0.573636
98 1 0.722624 0.331126 0.580542
203 2 0.690649 0.275482 0.571592
716 1 0.705181 0.406449 0.528107
391 1 0.657575 0.426668 0.569096
351 1 0.636798 0.312336 0.566898
189 1 0.769971 0.473342 0.544636
1119 3 0.544678 0.419404 0.54739
1056 1 0.546873 0.268942 0.539571
850 1 0.56484 0.387373 0.566697
1081 5 0.556088 0.255479 0.569734
529 1 0.813975 0.385118 0.530295
869 3 0.987065 0.279698 0.543765
612 1 0.74033 0.322006 0.511046
884 1 0.81618 0.280565 0.53045
843 5 0.924447 0.391143 0.52096
488 1 0.973173 0.295546 0.521212
825 2 0.801974 0.332216 0.517979
133 1 0.83822 0.335288 0.500026
18 1 0.790165 0.398001 0.564611
982 3 0.805102 0.250993 0.55138
1102 1 0.878441 0.439792 0.551057
769 1 0.846158 0.284087 0.56663
291 1 0.90092 0.364182 0.58433
1158 1 0.92417 0.260555 0.588029
623 1 0.983988 0.451968 0.572808
1100 2 0.816031 0.425671 0.547265
946 1 0.943617 0.312672 0.55717
742 2 0.904017 0.306221 0.573449
1175 1 0.583487 0.157497 0.400657
1054 5 0.985657 0.345383 0.463021
1059 1 0.997428 0.475088 0.402232
56 1 0.807836 0.36654 0.596513
930 2 0.501504 0.017 0.503331
649 1 0.654967 0.47979 0.400575
300 2 0.575666 0.185458 0.651658
1043 1 0.637176 0.182769 0.655084
788 1 0.736868 0.159608 0.645914
354 2 0.700094 0.195644 0.604593
441 2 0.620331 0.0222769 0.621414
748 1 0.666635 0.199124 0.622805
875 1 0.598878 0.0460573 0.602481
1152 1 0.658386 0.0609511 0.631868
122 5 0.719783 0.0743907 0.658161
656 2 0.689158 0.201667 0.642903
539 1 0.540486 0.134115 0.648092
1025 1 0.528018 0.141974 0.614291
240 1 0.558605 0.236419 0.605665
601 1 0.553516 0.235113 0.640785
448 5 0.746011 0.0673918 0.617833
615 1 0.943291 0.0122756 0.644016
932 1 0.822061 0.039938 0.659314
194 5 0.912267 0.0858756 0.665652
33 5 0.829589 0.12874 0.647903
383 1 0.954562 0.187517 0.655828
93 1 0.962803 0.223091 0.621164
666 1 0.863111 0.220153 0.611187
975 5 0.908457 0.0614938 0.617603
335 1 0.827699 0.114306 0.614201
292 2 0.820941 0.173883 0.606694
1151 1 0.762255 0.200499 0.611286
1140 2 0.988005 0.185896 0.637272
507 2 0.924954 0.217665 0.604512
355 1 0.714263 0.376891 0.647768
337 5 0.98279 0.435001 0.639054
223 1 0.644812 0.410301 0.626538
933 2 0.646028 0.353226 0.615169
642 2 0.699952 0.431296 0.637083
527 1 0.703702 0.326791 0.620102
457 2 0.734789 0.318993 0.639509
771 1 0.71037 0.262544 0.646965
1130 2 0.584567 0.436487 0.630316
641 1 0.577441 0.43344 0.651729
463 2 0.551157 0.274534 0.622975
1009 1 0.605515 0.3104 0.622989
193 1 0.537831 0.403081 0.619752
471 1 0.682861 0.491974 0.642727
1108 5 0.991624 0.0386046 0.619478
1182 5 0.911181 0.254484 0.67433
1080 2 0.868889 0.382827 0.602674
972 1 0.859188 0.443026 0.61088
1040 1 0.894052 0.321828 0.654753
963 1 0.843396 0.408108 0.642064
569 1 0.799009 0.319476 0.637975
65 1 0.884664 0.342391 0.618647
1132 2 0.824296 0.456515 0.629829
887 2 0.859002 0.344135 0.639317
675 1 0.759646 0.443365 0.627585