ITEM: TIMESTEP
2700
ITEM: NUMBER OF ATOMS
1200
ITEM: BOX BOUNDS pp pp pp
-7.6266250050336382e-02 2.5098596345622489e+01
-7.6266250050336382e-02 2.5098596345622489e+01
-2.5251128845723162e+01 5.0273458941295317e+01
ITEM: ATOMS id type xs ys zs
760 1 0.0765419 0.139498 0.391327
419 1 0.225596 0.135465 0.368456
108 1 0.223788 0.0374017 0.357205
96 1 0.0439953 0.0405879 0.384451
1076 1 0.187713 0.0996655 0.334735
1193 1 0.108997 0.08347 0.362084
580 5 0.137428 0.180808 0.357116
269 2 0.0262035 0.209173 0.339876
638 5 0.147465 0.141013 0.311414
390 2 0.0936251 0.0810219 0.383039
645 3 0.158777 0.0516372 0.348326
967 1 0.0794091 0.187544 0.330935
542 1 0.143656 0.0588897 0.394971
409 1 0.476242 0.38501 0.37974
1149 3 0.24478 0.102186 0.349255
660 1 0.271631 0.258708 0.364929
412 2 0.353672 0.364777 0.34675
992 5 0.0538461 0.0614526 0.333678
635 5 0.333753 0.212831 0.33308
787 1 0.401699 0.25134 0.351325
314 1 0.443147 0.181829 0.383094
590 2 0.484139 0.234639 0.382159
559 1 0.427011 0.0187223 0.353982
973 5 0.445532 0.121725 0.342492
468 2 0.398893 0.139954 0.391382
1174 1 0.30311 0.122349 0.340066
1037 1 0.385805 0.0990257 0.376091
432 5 0.33659 0.182765 0.362366
196 2 0.389077 0.0341852 0.370825
465 1 0.330293 0.0103892 0.368319
907 1 0.412392 0.00741782 0.388589
1159 2 0.424172 0.349152 0.383095
929 1 0.484705 0.252388 0.331206
628 1 0.390267 0.333071 0.332168
151 1 0.381567 0.355142 0.36682
624 3 0.494179 0.00692047 0.354752
26 5 0.197668 0.40959 0.334604
577 2 0.100239 0.489504 0.361658
82 1 0.192097 0.32317 0.351219
382 5 0.213587 0.21962 0.383417
40 5 0.0999326 0.348406 0.346019
813 1 0.0388929 0.467056 0.36587
403 5 0.158996 0.373516 0.383171
834 1 0.136395 0.491752 0.379437
418 1 0.0390995 0.256633 0.353557
915 1 0.131051 0.449466 0.34775
904 5 0.00674004 0.334252 0.373049
290 1 0.348377 0.175212 0.398145
1071 1 0.256706 0.360415 0.376708
456 1 0.475669 0.337035 0.348367
917 2 0.443655 0.488222 0.392262
935 2 0.437649 0.290426 0.339685
893 5 0.348777 0.262917 0.386546
460 1 0.361684 0.430017 0.346194
1053 1 0.293867 0.342183 0.346682
565 5 0.29349 0.446783 0.380365
346 2 0.24977 0.318826 0.360293
703 2 0.405273 0.471028 0.354873
241 1 0.444559 0.287315 0.383465
373 1 0.399736 0.465462 0.378076
1171 1 0.465891 0.451961 0.34893
1173 1 0.0783988 0.328521 0.393843
500 5 0.457109 0.0122027 0.313707
1059 1 0.00756874 0.473279 0.399471
690 3 0.498616 0.396556 0.357106
397 2 0.0403901 0.224884 0.474702
885 5 0.199747 0.214498 0.467373
1185 5 0.133181 0.159801 0.488501
88 1 0.0265969 0.167226 0.481337
28 1 0.216116 0.113076 0.494469
62 5 0.243955 0.0385038 0.448284
953 5 0.0846018 0.0219204 0.424721
1060 5 0.175465 0.220363 0.430478
137 5 0.182953 0.11999 0.438676
377 2 0.0593435 0.167476 0.410212
537 1 0.221245 0.0578947 0.419055
15 5 0.0749394 0.0849556 0.469309
353 1 0.0615625 0.233652 0.406707
1024 1 0.0945231 0.153818 0.427779
1070 2 0.190967 0.0242657 0.403759
20 1 0.144347 0.0292287 0.454221
1017 1 0.101669 0.229863 0.468491
208 1 0.223337 0.497378 0.440488
472 1 0.255138 0.0207579 0.482147
75 1 0.321708 0.0927831 0.496853
375 2 0.266874 0.0825228 0.48523
206 1 0.262835 0.221335 0.492942
407 1 0.484521 0.216308 0.497079
247 5 0.430578 0.112746 0.475503
378 2 0.456584 0.0235783 0.44749
516 1 0.45253 0.0880419 0.444694
406 1 0.470534 0.178952 0.42732
91 1 0.418369 0.107874 0.409416
920 2 0.460507 0.114288 0.425898
851 1 0.424503 0.492319 0.448494
858 1 0.276753 0.17145 0.436843
443 2 0.312399 0.132554 0.449123
14 1 0.33644 0.0804056 0.439215
968 1 0.2749 0.109342 0.46572
72 1 0.360572 0.167484 0.457691
922 5 0.356056 0.214043 0.485208
1194 5 0.320225 0.438204 0.564514
518 1 0.056788 0.288352 0.596766
533 1 0.159282 0.263857 0.402787
779 5 0.149312 0.44951 0.473789
242 1 0.0249756 0.26635 0.490907
754 1 0.0408493 0.458925 0.4702
78 5 0.163784 0.298284 0.479921
663 1 0.1315 0.363877 0.458379
1079 5 0.230556 0.429994 0.406634
435 1 0.200585 0.297788 0.447039
871 3 0.0172315 0.43781 0.490829
130 5 0.00388069 0.355812 0.581058
827 1 0.104728 0.309679 0.427796
689 2 0.152518 0.336161 0.440292
722 1 0.100824 0.476175 0.441668
1128 2 0.0378736 0.464892 0.44871
249 2 0.100857 0.284863 0.407218
265 1 0.182799 0.376622 0.426579
741 5 0.0847188 0.420592 0.414604
188 5 0.244475 0.321596 0.410239
364 1 0.0160691 0.3702 0.495062
1039 5 0.25599 0.373261 0.451033
322 5 0.360996 0.231282 0.423223
32 5 0.306312 0.265378 0.45718
257 3 0.00358573 0.00297384 0.493013
1105 1 0.33318 0.348567 0.534385
34 1 0.248994 0.435389 0.477133
998 1 0.396949 0.357687 0.402367
102 5 0.482498 0.35344 0.443854
1078 1 0.389509 0.410299 0.470337
564 2 0.381055 0.366906 0.486419
139 5 0.265663 0.342219 0.490966
547 1 0.321146 0.486982 0.497956
561 1 0.359173 0.310487 0.479842
256 2 0.265847 0.490575 0.486363
447 2 0.485485 0.406758 0.491251
4 1 0.442954 0.360025 0.494511
204 1 0.458453 0.458428 0.499877
608 1 0.46467 0.459075 0.409531
696 5 0.435122 0.250093 0.45825
996 1 0.456031 0.278196 0.42975
109 1 0.327824 0.327886 0.427966
694 1 0.326017 0.463359 0.449855
494 2 0.359931 0.374723 0.419447
308 1 0.39998 0.399587 0.435551
633 1 0.321984 0.421862 0.412095
410 2 0.38703 0.442061 0.450599
487 5 0.493089 0.0676966 0.550735
640 1 0.0461791 0.00781723 0.568863
550 1 0.133895 0.115086 0.518879
574 5 0.0310676 0.104663 0.503792
1155 1 0.146941 0.236231 0.506787
520 2 0.197493 0.116085 0.514998
811 1 0.226029 0.0665408 0.525348
643 1 0.22341 0.170273 0.523482
785 1 0.110675 0.0788829 0.583915
857 1 0.210723 0.0647377 0.581613
114 2 0.244875 0.0189124 0.592533
1089 1 0.00855726 0.0836106 0.59171
1006 1 0.0499757 0.133789 0.545834
738 3 0.0761386 0.224231 0.59219
647 2 0.164062 0.113892 0.577713
192 1 0.159094 0.126121 0.556597
632 1 0.0223719 0.182904 0.584843
897 2 0.0554482 0.0427874 0.586761
826 3 0.108925 0.104485 0.540266
680 1 0.100868 0.0365312 0.542503
548 1 0.184941 0.163756 0.589807
803 5 0.198199 0.206336 0.552964
219 1 0.117996 0.239247 0.573523
296 1 0.0655638 0.0158977 0.501277
211 5 0.320173 0.0465114 0.406213
991 5 0.335378 0.125564 0.59338
10 1 0.25829 0.237235 0.586268
23 1 0.35419 0.0865503 0.530043
298 2 0.265176 0.211773 0.514098
101 1 0.321734 0.1771 0.51642
854 2 0.353753 0.122218 0.512566
470 2 0.460173 0.182649 0.513835
413 1 0.43169 0.221823 0.528053
684 1 0.487153 0.0224092 0.522896
833 1 0.413259 0.141718 0.507077
81 1 0.413424 0.0289826 0.587168
961 2 0.444687 0.0849987 0.587315
900 3 0.423548 0.232116 0.592493
945 5 0.481864 0.205268 0.554052
42 1 0.482049 0.196762 0.58802
1161 1 0.430183 0.114226 0.569025
1066 5 0.379407 0.166185 0.546205
596 1 0.296859 0.170177 0.562234
1199 2 0.308121 0.225286 0.572809
220 1 0.305743 0.0193156 0.585545
646 5 0.273116 0.0794545 0.553193
837 5 0.373464 0.0343712 0.55529
438 1 0.359484 0.21798 0.585369
392 1 0.00910293 0.413284 0.440686
786 2 0.000605262 0.467176 0.594972
683 1 0.00493025 0.245648 0.457622
1117 5 0.117539 0.359137 0.595012
604 5 0.00279065 0.286032 0.428051
1001 2 0.14628 0.289582 0.518106
92 1 0.0914046 0.321752 0.51222
916 1 0.0472511 0.465048 0.509641
605 1 0.194197 0.327282 0.511846
424 2 0.0309201 0.314854 0.504748
798 5 0.194344 0.420583 0.510404
317 3 0.224702 0.468012 0.584238
611 1 0.233925 0.342174 0.547737
215 1 0.202945 0.421956 0.568913
367 5 0.0465694 0.393504 0.536703
366 1 0.0526206 0.306505 0.553112
759 1 0.145505 0.337415 0.56554
231 2 0.111463 0.285478 0.558789
153 1 0.142095 0.274719 0.539454
127 1 0.150001 0.407336 0.538935
352 1 0.0658232 0.465589 0.598002
174 2 0.18511 0.379281 0.554077
439 5 0.107489 0.477 0.560577
105 2 0.28493 0.310538 0.540968
1054 5 0.0349327 0.350422 0.461601
372 1 0.356891 0.330042 0.598021
706 1 0.436241 0.489771 0.564241
977 1 0.270181 0.262358 0.527261
535 1 0.277808 0.432553 0.529445
227 1 0.439618 0.289201 0.580652
340 1 0.369365 0.489345 0.590845
966 1 0.384114 0.441068 0.533869
784 2 0.436995 0.459607 0.544557
348 5 0.489552 0.326322 0.554397
303 1 0.481996 0.413733 0.542063
558 5 0.259345 0.343746 0.593464
100 2 0.335018 0.407147 0.524042
1013 1 0.347482 0.387529 0.50368
652 5 0.402257 0.296664 0.547003
1099 1 0.396781 0.374656 0.5679
344 1 0.454716 0.378123 0.597651
812 2 0.409374 0.344447 0.586301
1118 1 0.274667 0.436445 0.596805
943 5 0.490441 0.311442 0.518111
1057 1 0.310432 0.274396 0.558382
556 1 0.173132 0.479835 0.598332
395 5 0.354687 0.00647176 0.512582
309 5 0.260917 0.141711 0.404324
861 1 0.473274 0.497516 0.599944
746 1 9.87411e-05 0.150526 0.415563
1131 5 0.165206 0.0182037 0.672664
142 1 0.169193 0.117264 0.672629
711 5 0.1468 0.0156015 0.62551
700 1 0.139508 0.148643 0.639553
359 1 0.211424 0.0703933 0.643762
1126 1 0.0948146 0.192762 0.611371
47 2 0.0992588 0.196165 0.632382
94 1 0.0433102 0.198537 0.643153
230 2 0.188082 0.128145 0.652637
986 1 0.248079 0.0395421 0.613286
1108 5 0.0331112 0.0460199 0.631875
956 1 0.34971 0.438218 0.62184
123 1 0.238457 0.169168 0.649583
610 1 0.250629 0.191852 0.61685
1094 2 0.264251 0.0534183 0.633319
1072 1 0.439875 0.168843 0.637367
753 1 0.47388 0.0650551 0.630307
209 1 0.422089 0.241458 0.615393
255 1 0.340857 0.207282 0.635278
365 1 0.29811 0.1111 0.631413
111 2 0.404411 0.223392 0.635435
651 2 0.282319 0.176058 0.634486
415 1 0.429423 0.121213 0.605368
1042 2 0.465965 0.124534 0.624015
1103 2 0.467896 0.00740642 0.639664
909 5 0.0723169 0.296573 0.659719
50 5 0.0550011 0.467329 0.66155
1085 2 0.116899 0.49035 0.60871
458 1 0.128433 0.251934 0.636534
51 1 0.146221 0.408481 0.656074
343 1 0.22449 0.298448 0.63795
1114 2 0.171375 0.294078 0.626936
1145 1 0.0554782 0.383319 0.640799
870 1 0.144408 0.352966 0.625733
631 1 0.11551 0.456856 0.627352
1069 2 0.116993 0.399887 0.637566
524 1 0.496135 0.323016 0.624891
551 1 0.18228 0.263108 0.608398
931 1 0.303177 0.00807001 0.641455
202 5 0.474924 0.335041 0.656267
1150 1 0.443275 0.414786 0.631668
525 2 0.481545 0.383606 0.617647
607 2 0.322278 0.473008 0.605301
1183 5 0.321442 0.304222 0.66093
1000 1 0.359796 0.399484 0.654031
71 2 0.387062 0.437534 0.639423
999 1 0.413217 0.268806 0.650117
31 5 0.323424 0.339977 0.626641
639 5 0.207191 0.485087 0.651096
1111 1 0.0723587 0.00175668 0.60338
136 5 0.00800666 0.323742 0.618571
69 2 0.215665 0.212569 0.600152
370 1 0.105867 0.547616 0.353207
388 1 0.249723 0.723378 0.383201
1136 1 0.158817 0.749876 0.361901
1101 1 0.159642 0.593502 0.382525
763 1 0.0539285 0.765815 0.364277
708 1 0.0927996 0.667936 0.366534
85 1 0.0454077 0.580003 0.38085
839 2 0.103157 0.731611 0.371025
572 2 0.172046 0.53352 0.391246
1144 3 0.102793 0.599543 0.369982
1135 1 0.108849 0.738715 0.39251
429 5 0.243697 0.630418 0.377509
575 1 0.233966 0.520604 0.386813
793 3 0.261923 0.994136 0.368768
734 5 0.342725 0.700395 0.370184
1033 1 0.392931 0.645706 0.342077
1064 1 0.476212 0.594428 0.360241
918 1 0.395788 0.532774 0.349873
715 2 0.411586 0.597129 0.354809
579 1 0.390121 0.610077 0.375342
124 2 0.39287 0.604531 0.397061
9 1 0.489907 0.511774 0.379131
176 5 0.333666 0.705512 0.326693
697 5 0.391911 0.922498 0.360026
84 3 0.228589 0.755692 0.364242
1122 1 0.246846 0.931823 0.360495
1088 2 0.213132 0.880489 0.366859
286 1 0.237989 0.824035 0.364995
797 1 0.202446 0.888208 0.389305
89 1 0.156681 0.881354 0.355973
416 1 0.0533752 0.921134 0.352298
6 5 0.0281971 0.863156 0.376372
519 2 0.116078 0.930929 0.356257
747 1 0.12715 0.945547 0.377923
52 5 0.352866 0.835805 0.380529
758 1 0.440028 0.873479 0.379668
750 5 0.187496 0.767015 0.328758
762 1 0.132652 0.983439 0.345426
679 1 0.307617 0.909688 0.392042
404 1 0.258578 0.732539 0.344082
1062 5 0.474976 0.794626 0.396656
422 5 0.0114786 0.69502 0.34826
1186 1 0.495388 0.939049 0.360897
815 2 0.1469 0.920701 0.396279
804 1 0.231046 0.99947 0.390182
634 2 0.49618 0.904812 0.379457
914 1 0.497166 0.943133 0.396989
1007 1 0.179198 0.607546 0.479937
12 5 0.099583 0.756198 0.470503
1157 1 0.095919 0.649371 0.464138
531 1 0.218207 0.730269 0.421733
620 2 0.200618 0.671019 0.428174
135 1 0.192635 0.663664 0.449754
1058 1 0.142029 0.667166 0.417961
670 1 0.145548 0.574177 0.4473
444 1 0.155568 0.524673 0.41155
994 5 0.0443729 0.613899 0.436909
446 1 0.036169 0.684554 0.410984
1137 2 0.0946636 0.712891 0.412321
1169 2 0.153591 0.623276 0.461323
1112 3 0.20435 0.581336 0.499023
739 5 0.052225 0.555514 0.413206
545 2 0.217005 0.99926 0.527252
445 3 0.154601 0.516799 0.435242
718 1 0.247605 0.630953 0.423351
1083 1 0.338114 0.631884 0.475547
213 5 0.381025 0.528206 0.477406
1002 1 0.272242 0.530712 0.469303
1018 2 0.312211 0.64594 0.494759
349 1 0.276436 0.700854 0.492436
749 1 0.404176 0.7008 0.466507
554 5 0.444699 0.665413 0.494704
360 1 0.457369 0.925694 0.588975
501 5 0.481119 0.661209 0.431572
499 1 0.418899 0.731825 0.429714
528 1 0.419259 0.605344 0.454246
1049 3 0.458309 0.551657 0.450138
1031 1 0.339507 0.654968 0.440943
789 1 0.309384 0.555519 0.436769
562 1 0.323734 0.72667 0.410126
847 1 0.33993 0.611302 0.408734
911 2 0.309201 0.614699 0.427635
740 2 0.280721 0.510731 0.449365
1038 2 0.373629 0.6492 0.458409
86 1 0.413482 0.999346 0.461737
387 1 0.429436 0.564481 0.500093
173 1 0.00967216 0.522128 0.444484
844 2 0.234877 0.745492 0.486058
11 1 0.173798 0.726742 0.488428
637 1 0.158062 0.967648 0.41073
426 1 0.0591218 0.8564 0.470418
1087 1 0.128546 0.963189 0.481061
167 5 0.146205 0.860724 0.487304
374 1 0.246596 0.904894 0.486401
705 2 0.237011 0.906142 0.443791
603 1 0.242567 0.90948 0.422224
475 5 0.0181187 0.904798 0.421964
823 5 0.174962 0.782267 0.442217
180 5 0.0966731 0.862536 0.437506
35 1 0.0944539 0.76102 0.427267
594 1 0.177243 0.924886 0.451118
988 2 0.131961 0.967053 0.459169
685 2 0.014222 0.502745 0.523729
892 1 0.0775185 0.952172 0.449284
997 5 0.029705 0.785892 0.448732
342 5 0.139631 0.504178 0.52536
70 2 0.00455057 0.879619 0.478436
183 2 0.26019 0.882224 0.403127
386 1 0.262325 0.819059 0.404565
731 1 0.357006 0.831024 0.573641
985 5 0.315402 0.509378 0.402674
877 1 0.44951 0.984629 0.493828
1197 2 0.451737 0.744564 0.469356
1156 3 0.261121 0.750719 0.40491
941 1 0.34624 0.959219 0.484561
764 1 0.337748 0.82375 0.470873
881 1 0.250096 0.758891 0.465957
1015 3 0.2795 0.957994 0.476572
294 1 0.426512 0.901023 0.472693
293 1 0.459073 0.762999 0.489874
45 1 0.215996 0.511842 0.498718
874 2 0.410552 0.95898 0.479023
140 1 0.381629 0.815456 0.413881
699 1 0.392814 0.924076 0.413686
958 3 0.397372 0.847634 0.461492
325 1 0.445545 0.79832 0.457702
277 1 0.46912 0.857312 0.422428
898 3 0.440896 0.969281 0.405928
356 2 0.406109 0.869521 0.42333
1034 1 0.377036 0.874111 0.442075
226 1 0.276571 0.950551 0.453021
138 1 0.325704 0.773257 0.440851
513 2 0.292957 0.799679 0.457025
980 5 0.352395 0.981845 0.43656
144 2 0.363529 0.759699 0.423548
942 1 0.255464 0.848979 0.451
1189 5 0.144211 0.699113 0.518271
549 1 0.0605412 0.673174 0.528352
1147 5 0.0761444 0.618098 0.500377
665 2 0.0107321 0.714799 0.527977
657 1 0.164442 0.598879 0.517222
655 5 0.239217 0.640427 0.533502
120 1 0.230618 0.61244 0.566231
910 5 0.116179 0.607701 0.545311
182 1 0.144825 0.553372 0.572771
39 1 0.0533743 0.521503 0.539512
616 1 0.0342593 0.645155 0.572183
506 1 0.142084 0.649327 0.580134
1142 5 0.0431086 0.548592 0.572338
820 2 0.0810306 0.672355 0.583886
751 1 0.170976 0.741734 0.551394
145 1 0.0889158 0.731395 0.575972
1061 2 0.183275 0.600195 0.580316
949 5 0.00314556 0.878503 0.520882
7 1 0.0102265 0.748915 0.509379
886 5 0.25881 0.727417 0.563809
853 5 0.0381873 0.811127 0.407883
334 1 0.104957 0.878207 0.402918
450 2 0.435261 0.92599 0.568974
618 5 0.237398 0.519427 0.530439
307 2 0.369755 0.697209 0.526376
678 1 0.358014 0.657424 0.509528
568 5 0.347867 0.554718 0.520149
168 1 0.269528 0.603143 0.501796
978 2 0.464953 0.517569 0.508411
581 1 0.415606 0.670408 0.539832
902 1 0.408437 0.674793 0.573027
181 1 0.431616 0.574072 0.584369
1170 2 0.437593 0.705474 0.557386
541 5 0.409808 0.579608 0.550606
281 1 0.313374 0.569809 0.548826
79 1 0.317 0.709103 0.537191
1 1 0.326631 0.601127 0.580973
143 1 0.257861 0.518994 0.574236
1028 3 0.387793 0.62816 0.588192
534 2 0.284107 0.574716 0.567757
268 1 0.45738 0.50875 0.530353
905 1 0.372106 0.940071 0.571814
474 1 0.167402 0.988373 0.513306
862 1 0.0128318 0.98199 0.535466
484 1 0.441301 0.868955 0.559236
490 5 0.115902 0.833776 0.52766
1050 1 0.0896716 0.913459 0.508884
952 2 0.428853 0.509665 0.584905
576 2 0.112484 0.971095 0.502065
246 1 0.206284 0.868306 0.519208
702 1 0.0166351 0.760098 0.543632
1116 1 0.220917 0.958507 0.592866
1141 1 0.209591 0.984288 0.548087
262 1 0.177985 0.761782 0.588055
727 3 0.0795157 0.877393 0.567766
860 2 0.0634069 0.987796 0.548112
451 5 0.144359 0.982673 0.572872
405 1 0.0924289 0.909372 0.587762
765 1 0.123928 0.826846 0.56473
399 5 0.188088 0.889165 0.551762
376 1 0.0927352 0.930025 0.552083
482 1 0.0195712 0.850356 0.562902
567 2 0.142068 0.765423 0.568397
221 2 0.297383 0.831508 0.582285
310 5 0.283091 0.918579 0.549338
434 1 0.247894 0.802029 0.497046
234 3 0.362824 0.982419 0.592128
592 1 0.36307 0.845607 0.538705
283 1 0.403937 0.745059 0.517837
1023 1 0.287861 0.879981 0.595566
841 5 0.255146 0.782761 0.535474
816 1 0.255382 0.835314 0.565963
1115 1 0.294219 0.776621 0.592423
1113 1 0.494747 0.806594 0.523195
1011 2 0.251817 0.866831 0.504433
1184 1 0.310889 0.871904 0.511408
495 1 0.400161 0.932787 0.524627
1093 2 0.369354 0.87708 0.519738
41 1 0.271374 0.969971 0.52146
511 1 0.413197 0.843321 0.508388
83 2 0.44657 0.787353 0.50929
368 2 0.393991 0.824945 0.556254
414 1 0.457284 0.970339 0.554982
719 3 0.460602 0.961939 0.53165
1095 1 0.461804 0.783985 0.592372
315 1 0.415984 0.764636 0.554317
919 1 0.412371 0.541542 0.400189
598 1 0.439504 0.643522 0.403706
479 1 0.452595 0.998822 0.427197
544 1 0.212368 0.591668 0.599371
238 1 0.499081 0.551634 0.431323
398 5 0.000599477 0.658513 0.460796
913 5 0.0821853 0.633605 0.671541
68 1 0.22315 0.571022 0.636093
852 2 0.244357 0.707758 0.668414
329 1 0.219426 0.658331 0.656845
950 2 0.18245 0.613316 0.647505
1166 1 0.222498 0.709432 0.68854
627 1 0.016204 0.559139 0.666184
819 1 0.0736189 0.651598 0.604019
609 2 0.0908044 0.610662 0.621074
704 1 0.154559 0.579344 0.66289
891 1 0.110526 0.553058 0.613933
455 1 0.140355 0.636659 0.632454
955 1 0.0424913 0.601125 0.634262
393 5 0.0956404 0.545054 0.684126
521 1 0.188715 0.855316 0.603908
54 1 0.401426 0.500506 0.645285
459 1 0.0233194 0.701453 0.667143
440 5 0.249629 0.710714 0.606771
1180 5 0.379281 0.745046 0.600855
483 1 0.462632 0.566162 0.627852
1008 1 0.416258 0.731891 0.653876
1191 1 0.477498 0.745153 0.624305
1074 2 0.421194 0.562542 0.644764
106 1 0.451193 0.57671 0.663182
119 1 0.380272 0.655174 0.609317
125 1 0.309679 0.703258 0.670084
1125 2 0.251911 0.575358 0.617233
186 2 0.350807 0.735138 0.656185
923 1 0.287316 0.629183 0.621271
733 1 0.294417 0.52721 0.613612
927 1 0.334661 0.704488 0.638369
363 1 0.373556 0.60672 0.640024
129 2 0.345985 0.650073 0.627252
99 2 0.499511 0.934688 0.605589
710 1 0.22866 0.760184 0.656734
1020 1 0.0318512 0.735774 0.633043
937 3 0.221956 0.915817 0.647531
442 2 0.232679 0.903602 0.604985
1167 2 0.219933 0.801576 0.640251
588 1 0.188395 0.771833 0.623652
653 1 0.236511 0.924905 0.625197
80 1 0.180962 0.853227 0.644516
712 1 0.0964331 0.790583 0.609167
1067 2 0.159974 0.796345 0.605606
502 2 0.00648533 0.855895 0.647205
802 2 0.0369715 0.781224 0.617216
244 3 0.124261 0.896955 0.644095
324 1 0.164079 0.951775 0.650486
1124 2 0.0682357 0.935998 0.605212
1003 1 0.0656844 0.876872 0.65492
60 1 0.101093 0.913499 0.623073
345 1 0.0133057 0.836196 0.62652
104 5 0.147325 0.767737 0.698816
1014 1 0.406477 0.997481 0.645029
838 1 0.475938 0.962478 0.623098
437 5 0.328681 0.665911 0.702437
908 1 0.350522 0.906778 0.641059
338 1 0.491887 0.809852 0.65068
132 1 0.33851 0.796645 0.659457
867 5 0.39652 0.855703 0.604767
491 2 0.445433 0.773549 0.640502
1123 1 0.356709 0.968947 0.614499
205 5 0.326362 0.87099 0.682594
177 3 0.339215 0.839654 0.641353
217 1 0.275389 0.820976 0.631654
960 1 0.261992 0.899845 0.66381
1110 2 0.353589 0.968449 0.636378
1106 1 0.3957 0.807102 0.631241
1046 1 0.00369649 0.92927 0.604388
285 1 0.6953 0.152415 0.389736
725 1 0.636277 0.063572 0.3698
464 1 0.6869 0.135015 0.349041
1178 2 0.704257 0.206466 0.379415
1092 2 0.68747 0.0729511 0.357225
810 1 0.743379 0.0701056 0.369125
1016 5 0.582426 0.147751 0.366695
321 1 0.533821 0.041271 0.370549
934 1 0.511546 0.233509 0.363133
1148 2 0.589398 0.0269226 0.379732
947 2 0.886831 0.287648 0.359535
328 2 0.531134 0.220906 0.342542
688 1 0.69802 0.24225 0.336559
299 1 0.912666 0.342542 0.353497
984 1 0.656248 0.231324 0.367546
121 5 0.591477 0.0881033 0.334095
267 1 0.590665 0.247068 0.341192
903 1 0.68612 0.0269474 0.342701
1146 5 0.991508 0.210008 0.37977
757 1 0.52775 0.159496 0.338283
585 3 0.733423 0.188689 0.343114
16 2 0.649416 0.265806 0.348388
1200 1 0.831057 0.399082 0.369013
1096 1 0.724758 0.252868 0.392379
686 2 0.987924 0.474483 0.378811
1026 1 0.753324 0.20172 0.365547
1073 2 0.805153 0.0698545 0.375932
818 2 0.838015 0.113872 0.338574
330 1 0.892212 0.141824 0.332433
540 5 0.832131 0.182215 0.379129
436 1 0.899872 0.450153 0.344188
288 2 0.932518 0.187375 0.338889
1068 1 0.788326 0.156216 0.334554
990 1 0.83764 0.1012 0.36007
107 1 0.835342 0.0557193 0.330153
389 1 0.97492 0.219191 0.327059
1163 1 0.82101 0.0983556 0.394443
159 2 0.98959 0.0108447 0.390198
261 1 0.900374 0.232774 0.350788
428 1 0.624826 0.474628 0.332417
216 1 0.648887 0.494744 0.367801
614 1 0.98486 0.162872 0.350017
1032 1 0.819936 0.00832007 0.37874
799 2 0.753228 0.310933 0.396059
807 5 0.533725 0.47338 0.323215
517 5 0.69773 0.0505051 0.399488
555 1 0.767415 0.376965 0.340978
497 5 0.687754 0.401337 0.325946
822 5 0.605126 0.245783 0.397564
940 1 0.584752 0.320929 0.384061
729 1 0.646886 0.330208 0.3539
396 1 0.744708 0.449485 0.378301
254 2 0.682318 0.456457 0.382223
77 1 0.650627 0.401364 0.380587
774 1 0.566522 0.397279 0.359707
1192 2 0.612143 0.362867 0.369406
676 1 0.749708 0.343096 0.376796
341 1 0.94439 0.426818 0.376381
1045 1 0.821918 0.303204 0.357416
477 5 0.901743 0.397595 0.319349
732 2 0.806127 0.438969 0.383367
692 2 0.787829 0.35685 0.359968
745 3 0.897993 0.407057 0.361037
1010 1 0.899165 0.280284 0.380433
21 5 0.922259 0.0507401 0.353368
957 1 0.93863 0.0473226 0.386537
845 1 0.525402 0.0148972 0.334342
493 5 0.908668 0.128852 0.39671
195 1 0.840785 0.494355 0.383674
1175 1 0.581161 0.148559 0.398056
1019 5 0.538348 0.111013 0.463209
1030 2 0.535082 0.246351 0.486586
146 1 0.576152 0.200774 0.479829
691 1 0.636386 0.122606 0.491469
613 2 0.636897 0.174552 0.478226
179 1 0.68504 0.210725 0.484806
469 5 0.746882 0.0345011 0.469789
783 1 0.664712 0.0490868 0.453532
2 1 0.622547 0.104388 0.42655
454 1 0.644058 0.150829 0.457721
401 5 0.736496 0.190281 0.458191
128 5 0.591483 0.0394006 0.473298
489 1 0.72242 0.120526 0.435413
864 2 0.663793 0.105451 0.443339
795 5 0.666064 0.185223 0.419124
3 2 0.578833 0.0969683 0.410821
30 1 0.518757 0.0933621 0.419054
115 1 0.512764 0.238908 0.401806
880 1 0.511621 0.42149 0.472066
1133 1 0.556433 0.244783 0.432538
770 1 0.51353 0.00852302 0.455017
742 2 0.901887 0.303138 0.57405
478 1 0.795189 0.121869 0.472404
682 5 0.950057 0.135534 0.4943
253 5 0.894918 0.0446222 0.468444
622 2 0.843639 0.162474 0.475662
930 2 0.501368 0.0189446 0.501955
116 1 0.854697 0.165074 0.496921
199 5 0.854464 0.00847202 0.407
687 1 0.508288 0.0759273 0.491585
782 1 0.828533 0.222016 0.469346
582 5 0.926529 0.187335 0.43475
1179 5 0.989882 0.126099 0.452758
522 5 0.784962 0.166831 0.412404
214 1 0.870947 0.214785 0.404926
829 1 0.893439 0.140607 0.464157
95 5 0.818196 0.0892492 0.438486
394 1 0.990832 0.0479504 0.475879
557 2 0.500319 0.235326 0.423333
1077 3 0.515141 0.488095 0.423434
218 5 0.593339 0.356965 0.473106
1052 5 0.681222 0.30194 0.485185
1168 5 0.711104 0.43225 0.49044
546 2 0.60233 0.284693 0.441345
721 5 0.630961 0.38659 0.414062
593 3 0.663588 0.483176 0.455861
433 1 0.724174 0.329228 0.448133
312 1 0.655419 0.276119 0.427362
1004 2 0.750499 0.385394 0.454464
44 2 0.715766 0.294421 0.429808
57 1 0.622624 0.277906 0.461067
37 1 0.723913 0.337993 0.413338
669 1 0.703625 0.428428 0.458214
767 1 0.601091 0.470576 0.46785
586 1 0.579761 0.343268 0.437153
536 1 0.537103 0.459234 0.441687
863 2 0.538632 0.472732 0.462166
976 5 0.524326 0.355554 0.40803
466 1 0.514717 0.291285 0.473504
693 5 0.77582 0.251068 0.496528
672 1 0.760236 0.249776 0.429467
591 5 0.944166 0.404106 0.411066
1091 1 0.781469 0.378141 0.47375
761 3 0.844954 0.376914 0.484209
476 5 0.920883 0.257536 0.473453
357 2 0.893429 0.491237 0.492917
263 1 0.892363 0.350875 0.469241
1138 1 0.953483 0.46706 0.493387
735 1 0.851833 0.442235 0.491058
636 1 0.878487 0.44988 0.427333
674 1 0.801589 0.429239 0.404906
64 2 0.815338 0.444524 0.425736
131 1 0.916775 0.310874 0.414473
1021 5 0.839558 0.286487 0.446601
1190 5 0.930174 0.361677 0.440489
1035 5 0.91081 0.444026 0.456253
103 1 0.796661 0.394403 0.438927
946 1 0.940303 0.315672 0.557692
1109 1 0.507471 0.149749 0.524373
190 1 0.785346 0.494964 0.433199
1084 1 0.572742 0.492418 0.409401
899 1 0.72765 0.496478 0.514139
297 1 0.816812 0.303808 0.401279
467 2 0.875612 0.278847 0.401702
713 1 0.65147 0.0213239 0.499714
172 1 0.672353 0.496074 0.541559
1044 1 0.5842 0.0124216 0.567571
250 2 0.534865 0.185608 0.599836
1121 2 0.570962 0.140042 0.52903
164 1 0.599922 0.0870457 0.522259
58 1 0.701024 0.104108 0.518491
901 2 0.650035 0.08108 0.50807
304 1 0.605669 0.192352 0.523414
1041 1 0.571232 0.141043 0.551038
936 1 0.716243 0.0393864 0.590267
1139 1 0.653368 0.10379 0.568059
53 1 0.691517 0.142914 0.596474
626 2 0.612097 0.153074 0.567842
210 5 0.729618 0.0567815 0.544017
339 2 0.703003 0.0969149 0.581923
43 5 0.71803 0.206635 0.525312
369 1 0.644454 0.207691 0.562329
971 1 0.675761 0.246427 0.59087
830 1 0.581566 0.161433 0.586469
350 2 0.561584 0.0324485 0.587241
1195 1 0.510068 0.0691478 0.588376
649 1 0.674315 0.48738 0.401513
736 5 0.81799 0.0469481 0.599283
200 2 0.988195 0.154289 0.545163
1154 5 0.78248 0.1043 0.503092
515 5 0.879189 0.0875985 0.523752
408 1 0.959715 0.131797 0.527394
384 5 0.884271 0.205193 0.525444
224 1 0.817346 0.0278777 0.518426
1198 1 0.814704 0.189934 0.550733
157 1 0.906503 0.046182 0.582339
1005 1 0.85148 0.091132 0.559114
332 1 0.958809 0.130625 0.562849
1187 2 0.883878 0.0361432 0.562875
809 2 0.97848 0.136304 0.583926
118 2 0.814423 0.141043 0.565349
147 1 0.921213 0.0209658 0.545312
570 1 0.93378 0.157974 0.597949
273 1 0.829656 0.170539 0.584421
228 1 0.754603 0.118537 0.569939
794 1 0.95664 0.0166253 0.509886
677 1 0.988995 0.218602 0.546822
801 1 0.564605 0.482783 0.549651
73 2 0.596588 0.257436 0.523252
152 1 0.615673 0.355227 0.59623
895 1 0.53766 0.395585 0.5032
427 2 0.594447 0.408607 0.511894
509 1 0.592739 0.391374 0.532837
878 1 0.566411 0.270251 0.504225
924 1 0.606558 0.469819 0.509041
235 1 0.652404 0.287353 0.525694
279 1 0.643214 0.372878 0.504195
948 3 0.684212 0.349241 0.520679
431 2 0.68346 0.471251 0.584799
379 2 0.724657 0.466246 0.532949
720 1 0.734397 0.258203 0.559528
890 1 0.727972 0.436661 0.59481
831 2 0.616513 0.37026 0.575139
98 1 0.716475 0.339975 0.582667
203 2 0.675864 0.263288 0.569588
716 1 0.712089 0.402991 0.531617
391 1 0.652787 0.426859 0.57282
351 1 0.634944 0.31255 0.56526
1119 3 0.546538 0.415524 0.548045
1056 1 0.546883 0.266035 0.537338
850 1 0.559225 0.381547 0.567688
1081 5 0.533835 0.286692 0.574042
612 1 0.74871 0.329381 0.51191
840 1 0.596101 0.0414954 0.400297
530 3 0.945419 0.4801 0.555377
737 2 0.760944 0.383596 0.586979
430 5 0.781817 0.269353 0.590651
266 1 0.967639 0.469486 0.533949
189 1 0.780179 0.471522 0.544885
529 1 0.826512 0.381752 0.53532
869 3 0.99048 0.287826 0.544184
884 1 0.815708 0.280582 0.531685
843 5 0.915445 0.385279 0.521873
488 1 0.992135 0.307798 0.521759
825 2 0.807898 0.335154 0.520624
133 1 0.84799 0.337526 0.503737
18 1 0.79555 0.401552 0.569815
982 3 0.797905 0.259073 0.552673
1102 1 0.880973 0.451398 0.555052
769 1 0.843317 0.283729 0.567384
291 1 0.895632 0.358798 0.585846
1158 1 0.928855 0.260554 0.588001
623 1 0.986437 0.458428 0.572975
1100 2 0.822665 0.424298 0.551544
300 2 0.565354 0.185423 0.650239
1043 1 0.625946 0.199703 0.653768
788 1 0.732296 0.172576 0.651482
354 2 0.69801 0.20256 0.604878
441 2 0.630993 0.0251749 0.619315
748 1 0.672461 0.207164 0.623793
46 5 0.827489 0.000894844 0.680441
1152 1 0.671467 0.0635201 0.629858
122 5 0.695858 0.0765829 0.661033
656 2 0.684364 0.210348 0.645226
539 1 0.550351 0.129271 0.657752
1025 1 0.522227 0.14943 0.616533
240 1 0.552493 0.243571 0.606703
601 1 0.536876 0.232186 0.638968
448 5 0.758051 0.0969706 0.633791
875 1 0.610939 0.0469407 0.600289
932 1 0.818478 0.0529462 0.653211
194 5 0.953106 0.0682919 0.663043
33 5 0.824355 0.141322 0.648847
383 1 0.939409 0.203714 0.657299
93 1 0.963863 0.222297 0.622994
666 1 0.864365 0.222642 0.611931
975 5 0.927762 0.0769195 0.615636
335 1 0.830492 0.125458 0.616821
292 2 0.820351 0.179897 0.60613
1151 1 0.762408 0.205416 0.60901
1140 2 0.977775 0.186637 0.641378
481 1 0.578161 0.00887916 0.63042
162 1 0.979904 0.122542 0.638427
498 1 0.970895 0.418573 0.604661
355 1 0.701873 0.380334 0.648822
223 1 0.637455 0.416302 0.624932
933 2 0.637916 0.351777 0.615598
642 2 0.691022 0.435827 0.63783
527 1 0.698875 0.332602 0.619262
457 2 0.728259 0.327529 0.63925
771 1 0.706193 0.272898 0.647178
1130 2 0.575565 0.438589 0.631005
641 1 0.569042 0.411541 0.650342
463 2 0.54339 0.279355 0.624574
1009 1 0.598826 0.313293 0.626974
193 1 0.538841 0.412753 0.615785
471 1 0.672895 0.492998 0.646149
675 1 0.749702 0.448404 0.629931
56 1 0.803032 0.359291 0.60098
337 5 0.96005 0.415062 0.6389
1182 5 0.917062 0.275151 0.67528
1080 2 0.865871 0.383122 0.603772
972 1 0.847707 0.444109 0.608259
1040 1 0.886199 0.344542 0.658735
963 1 0.845403 0.429799 0.642042
569 1 0.793122 0.338895 0.638582
65 1 0.882159 0.353622 0.6225
1132 2 0.811664 0.465012 0.626883
887 2 0.852397 0.363471 0.64176
507 2 0.926068 0.219241 0.605698
615 1 0.950157 0.000838023 0.639703
239 1 0.655152 0.571438 0.345171
411 2 0.736348 0.623349 0.375701
385 5 0.769996 0.987143 0.337867
876 2 0.622887 0.515317 0.34889