ITEM: TIMESTEP
400
ITEM: NUMBER OF ATOMS
1200
ITEM: BOX BOUNDS pp pp pp
-7.6266250050336382e-02 2.5098596345622489e+01
-7.6266250050336382e-02 2.5098596345622489e+01
-2.5251128845723162e+01 5.0273458941295317e+01
ITEM: ATOMS id type xs ys zs
760 1 0.050154 0.120041 0.398073
1149 3 0.215373 0.0968504 0.347382
419 1 0.227499 0.129605 0.367101
108 1 0.212612 0.029617 0.352316
456 1 0.47251 0.327327 0.34861
96 1 0.0383483 0.0191577 0.394708
635 5 0.315153 0.194907 0.320476
1076 1 0.145833 0.101041 0.338509
1193 1 0.0691582 0.0819226 0.365011
580 5 0.146958 0.157852 0.376151
269 2 0.0138106 0.219115 0.355787
638 5 0.118625 0.15958 0.316952
390 2 0.0698304 0.072277 0.386086
645 3 0.115235 0.0515862 0.350093
967 1 0.0688142 0.194237 0.361594
690 3 0.492205 0.392608 0.356928
26 5 0.203768 0.352842 0.319667
542 1 0.132686 0.0598895 0.390249
935 2 0.438516 0.276746 0.343927
787 1 0.402161 0.242075 0.357451
624 3 0.496655 0.00378263 0.353849
314 1 0.458355 0.177367 0.388707
590 2 0.494541 0.233339 0.386499
577 2 0.102988 0.45927 0.355502
460 1 0.332248 0.476403 0.348402
559 1 0.427701 0.00811652 0.35865
1053 1 0.289655 0.353776 0.347286
973 5 0.315121 0.135732 0.352874
290 1 0.349327 0.175426 0.393865
468 2 0.404579 0.141357 0.39186
1174 1 0.253553 0.125645 0.329414
1037 1 0.394262 0.0965162 0.375827
432 5 0.249179 0.201963 0.386574
196 2 0.386933 0.0311376 0.373705
82 1 0.197646 0.295248 0.34538
346 2 0.248008 0.310606 0.356349
477 5 0.00945767 0.381552 0.336188
1059 1 0.0215945 0.439825 0.395633
40 5 0.105465 0.31008 0.359182
804 1 0.23245 0.0117081 0.388153
813 1 0.0424247 0.451305 0.363539
403 5 0.145612 0.366618 0.393549
465 1 0.325035 0.0141552 0.368722
1071 1 0.22548 0.329009 0.376284
834 1 0.164355 0.465932 0.390731
418 1 0.0117896 0.283751 0.354559
915 1 0.128555 0.416663 0.345796
703 2 0.393926 0.476205 0.353844
241 1 0.452328 0.282852 0.385452
929 1 0.482073 0.237698 0.335724
373 1 0.401925 0.478242 0.376096
1171 1 0.439779 0.434398 0.347769
409 1 0.467792 0.383811 0.378904
1159 2 0.42246 0.340765 0.383809
412 2 0.343919 0.315002 0.351815
628 1 0.381671 0.303552 0.333821
660 1 0.299005 0.271253 0.359466
151 1 0.375933 0.342463 0.368204
893 5 0.331052 0.262188 0.389551
565 5 0.259474 0.420224 0.379832
907 1 0.401341 0.00989202 0.393209
1173 1 0.0762089 0.305972 0.399669
296 1 0.0611636 0.00341396 0.502533
397 2 0.0271152 0.233025 0.470967
885 5 0.167774 0.194916 0.47641
1185 5 0.0532878 0.0983725 0.491656
88 1 0.00517304 0.17553 0.477407
28 1 0.211077 0.108184 0.488792
62 5 0.242028 0.0245636 0.441031
953 5 0.0801454 0.00822099 0.428668
640 1 0.0427853 0.00461806 0.566135
1060 5 0.151174 0.189745 0.440273
137 5 0.173977 0.0881736 0.443335
377 2 0.0529814 0.1523 0.416746
537 1 0.202127 0.0777016 0.41377
15 5 0.0782975 0.0490859 0.458302
353 1 0.084467 0.208328 0.414017
1017 1 0.0887872 0.22876 0.464986
1024 1 0.0802901 0.114167 0.431887
472 1 0.263057 0.0223348 0.474041
75 1 0.312722 0.0980086 0.493992
375 2 0.266047 0.0839847 0.478894
206 1 0.259769 0.22653 0.492042
407 1 0.479336 0.21568 0.492278
985 5 0.337065 0.493629 0.407294
247 5 0.435715 0.120883 0.472052
378 2 0.466538 0.0239585 0.445421
516 1 0.457139 0.0886774 0.444827
406 1 0.475062 0.182494 0.428704
91 1 0.413819 0.113365 0.410988
556 1 0.178746 0.470563 0.597976
920 2 0.460259 0.119781 0.425376
211 5 0.315289 0.0116127 0.407739
858 1 0.279778 0.171474 0.430645
443 2 0.313269 0.129524 0.442596
14 1 0.326785 0.0720385 0.433583
322 5 0.368698 0.230052 0.425365
968 1 0.273254 0.116542 0.460029
877 1 0.435819 0.0038929 0.490551
72 1 0.36394 0.161772 0.451289
32 5 0.288838 0.236405 0.459311
364 1 0.0184581 0.379792 0.494115
779 5 0.151739 0.442277 0.47281
871 3 0.0150185 0.4458 0.491858
242 1 0.0220277 0.275007 0.488273
754 1 0.0355529 0.471192 0.471212
78 5 0.137295 0.291617 0.481438
34 1 0.254174 0.422317 0.479523
1099 1 0.401824 0.383093 0.563849
663 1 0.111687 0.352738 0.461259
188 5 0.230016 0.343922 0.407976
1079 5 0.240357 0.435214 0.424287
991 5 0.341311 0.107362 0.596104
435 1 0.195047 0.289536 0.453491
392 1 0.00505143 0.425354 0.441191
591 5 0.0113505 0.359608 0.413206
827 1 0.115479 0.294621 0.430696
689 2 0.147234 0.328109 0.445816
722 1 0.0972309 0.479028 0.442439
1128 2 0.0359131 0.475342 0.449576
249 2 0.111833 0.265547 0.411239
265 1 0.17589 0.375177 0.434939
741 5 0.0924278 0.429637 0.415432
344 1 0.430513 0.389307 0.598023
533 1 0.173483 0.259252 0.405568
1078 1 0.38353 0.416622 0.467851
564 2 0.375541 0.369793 0.482552
139 5 0.25458 0.315511 0.483494
547 1 0.323974 0.478946 0.498886
561 1 0.356672 0.314566 0.474346
256 2 0.270202 0.479956 0.486903
447 2 0.486774 0.40122 0.491601
4 1 0.437122 0.361925 0.490658
204 1 0.460567 0.459143 0.49782
604 5 0.00639396 0.284072 0.426928
608 1 0.462724 0.467983 0.407421
812 2 0.400503 0.352196 0.582366
1070 2 0.182887 0.0335703 0.400137
696 5 0.425416 0.240808 0.460489
996 1 0.458704 0.28494 0.432578
102 5 0.482477 0.363239 0.446584
382 5 0.240565 0.255458 0.427158
1039 5 0.263458 0.370008 0.453725
109 1 0.314873 0.320626 0.424358
694 1 0.313153 0.462964 0.446055
494 2 0.352439 0.367781 0.417479
308 1 0.378433 0.400723 0.433981
633 1 0.308578 0.404381 0.407136
410 2 0.374171 0.445127 0.448926
550 1 0.129657 0.110054 0.513416
574 5 0.0454214 0.178978 0.50589
1155 1 0.128185 0.226719 0.503649
520 2 0.192411 0.112768 0.509819
811 1 0.21642 0.060594 0.520576
643 1 0.217874 0.166308 0.517856
785 1 0.114448 0.0812509 0.577248
857 1 0.212125 0.058107 0.575369
69 2 0.213872 0.207837 0.595689
114 2 0.242005 0.0149679 0.588222
208 1 0.213386 0.498129 0.444634
1089 1 0.016379 0.0861103 0.587075
1006 1 0.0540069 0.130974 0.538896
738 3 0.0803187 0.221201 0.588226
647 2 0.169597 0.108632 0.571188
192 1 0.16146 0.118264 0.550022
632 1 0.0322659 0.183019 0.57801
897 2 0.0615191 0.0436723 0.581522
826 3 0.110806 0.0938641 0.534591
680 1 0.100866 0.0280461 0.540922
548 1 0.192747 0.154964 0.585122
803 5 0.211069 0.198246 0.549847
219 1 0.12387 0.236259 0.570774
23 1 0.35251 0.0809305 0.526295
298 2 0.262441 0.20857 0.512554
101 1 0.319603 0.177149 0.515335
854 2 0.349717 0.122361 0.510079
1118 1 0.28524 0.439548 0.592166
470 2 0.456294 0.186537 0.509874
413 1 0.430662 0.230901 0.523088
684 1 0.483478 0.0186221 0.521358
833 1 0.409249 0.143139 0.504568
930 2 0.492488 0.0256321 0.499595
81 1 0.413691 0.0401229 0.586583
961 2 0.453118 0.0894521 0.586402
900 3 0.423928 0.234336 0.590535
945 5 0.476971 0.197964 0.550575
42 1 0.485065 0.206495 0.585047
1057 1 0.321728 0.264813 0.555388
1161 1 0.445059 0.11304 0.566974
1066 5 0.379518 0.167788 0.548012
596 1 0.300283 0.165117 0.559084
1199 2 0.31449 0.217272 0.570043
10 1 0.261997 0.229508 0.582522
220 1 0.304502 0.0191981 0.58494
646 5 0.279776 0.0767729 0.550149
837 5 0.388324 0.0356263 0.550384
438 1 0.365262 0.21315 0.582751
1001 2 0.137448 0.27976 0.515915
92 1 0.0839919 0.31548 0.512096
916 1 0.0506742 0.476601 0.509259
1194 5 0.314277 0.433137 0.561933
342 5 0.140301 0.493413 0.520901
605 1 0.187497 0.315203 0.507541
424 2 0.0243244 0.322111 0.503034
798 5 0.197362 0.403748 0.507032
558 5 0.252556 0.347515 0.596475
317 3 0.230381 0.467899 0.58091
611 1 0.238997 0.334605 0.547112
215 1 0.21204 0.417044 0.56685
367 5 0.0637767 0.393231 0.5337
105 2 0.289111 0.299118 0.540583
366 1 0.0555242 0.299921 0.548237
130 5 0.0131683 0.361393 0.578344
759 1 0.143854 0.339977 0.562191
231 2 0.113285 0.28363 0.555403
153 1 0.144492 0.268889 0.536783
786 2 0.00636051 0.470261 0.593335
518 1 0.0491347 0.281953 0.592541
127 1 0.15972 0.407781 0.536756
352 1 0.0741112 0.466213 0.592393
174 2 0.192205 0.375291 0.551744
439 5 0.122832 0.472757 0.558972
100 2 0.333534 0.399749 0.520805
922 5 0.350756 0.266147 0.502016
977 1 0.266646 0.255004 0.527024
535 1 0.281695 0.429359 0.530131
966 1 0.388467 0.428845 0.52852
1013 1 0.340438 0.376237 0.500699
372 1 0.343956 0.33754 0.58993
227 1 0.435925 0.299044 0.581344
851 1 0.411698 0.498088 0.448614
652 5 0.418424 0.303684 0.546073
998 1 0.396569 0.353287 0.402779
784 2 0.435162 0.454071 0.540387
861 1 0.486083 0.494106 0.585565
706 1 0.419399 0.488818 0.55867
303 1 0.487259 0.415626 0.541683
340 1 0.383115 0.48844 0.591777
1105 1 0.3318 0.339672 0.531581
1054 5 0.010523 0.350719 0.461796
309 5 0.279661 0.117148 0.400661
943 5 0.477793 0.323546 0.519515
1117 5 0.102875 0.368352 0.589314
1111 1 0.075514 0.00346342 0.597608
348 5 0.491715 0.344182 0.564113
395 5 0.351147 0.00322525 0.508555
257 3 0.000789724 0.000870682 0.491984
479 1 0.459813 0.000719365 0.425304
1000 1 0.349383 0.396996 0.654671
123 1 0.264731 0.187696 0.649454
610 1 0.24718 0.190836 0.613886
1094 2 0.25114 0.0482026 0.629392
162 1 0.0227996 0.118815 0.623328
50 5 0.174745 0.466247 0.663183
142 1 0.113365 0.0712086 0.667598
71 2 0.377501 0.430957 0.639173
1085 2 0.122 0.479639 0.606937
711 5 0.105162 0.0884626 0.612436
700 1 0.13407 0.139289 0.640811
359 1 0.200651 0.0608501 0.643465
1126 1 0.109566 0.190129 0.608694
47 2 0.116113 0.195011 0.630594
94 1 0.0568353 0.209987 0.637821
230 2 0.149795 0.0877561 0.652685
1072 1 0.450837 0.172633 0.634311
753 1 0.476163 0.0708431 0.632675
999 1 0.390399 0.256648 0.648191
31 5 0.320492 0.274735 0.612728
931 1 0.294314 0.00344745 0.635474
209 1 0.423547 0.246752 0.614231
1140 2 0.00401376 0.174006 0.632798
205 5 0.309099 0.0132102 0.667356
255 1 0.34892 0.183216 0.627875
986 1 0.231034 0.0310646 0.609877
202 5 0.302991 0.296197 0.662404
365 1 0.279655 0.105514 0.627314
111 2 0.404047 0.215908 0.632672
651 2 0.285253 0.169159 0.630268
458 1 0.15511 0.244837 0.633868
51 1 0.165319 0.3873 0.648891
343 1 0.243976 0.304786 0.626074
1114 2 0.182321 0.287947 0.621555
1145 1 0.0678522 0.36264 0.641719
1183 5 0.0984085 0.275554 0.657409
870 1 0.145095 0.340238 0.618235
415 1 0.435836 0.127695 0.602527
956 1 0.342128 0.449079 0.622311
1103 2 0.45764 0.0119118 0.639129
551 1 0.183012 0.262848 0.601999
631 1 0.115561 0.438452 0.623073
1069 2 0.121384 0.383487 0.633217
1150 1 0.426569 0.391987 0.632063
639 5 0.262214 0.386919 0.642648
525 2 0.466394 0.385062 0.616152
337 5 0.0333074 0.483385 0.633755
54 1 0.401732 0.491588 0.64589
607 2 0.32909 0.476541 0.603765
370 1 0.130393 0.517938 0.357269
914 1 0.490794 0.93945 0.396611
388 1 0.241451 0.724362 0.389432
1136 1 0.228251 0.717678 0.345753
232 1 0.00353351 0.627596 0.361529
429 5 0.257522 0.643603 0.376209
739 5 0.168283 0.662359 0.390773
1101 1 0.194594 0.56763 0.382649
763 1 0.125906 0.740658 0.350792
404 1 0.33614 0.776004 0.370472
708 1 0.159008 0.631991 0.354638
734 5 0.416949 0.7584 0.389499
85 1 0.0890575 0.588919 0.381071
839 2 0.17213 0.698644 0.351515
212 2 0.0233046 0.597819 0.37973
1144 3 0.140806 0.578719 0.368937
422 5 0.0456252 0.702619 0.371787
919 1 0.412071 0.554184 0.396933
598 1 0.420089 0.652717 0.389067
1033 1 0.41197 0.633945 0.339764
697 5 0.350371 0.918378 0.369226
1064 1 0.496372 0.602522 0.361835
918 1 0.419465 0.533424 0.347536
758 1 0.43627 0.879993 0.37704
715 2 0.442866 0.591084 0.350733
52 5 0.35949 0.85302 0.391393
176 5 0.391212 0.709453 0.360966
579 1 0.343984 0.594849 0.374512
124 2 0.376497 0.607128 0.392365
668 5 0.260353 0.532859 0.363017
807 5 0.333269 0.562893 0.334662
1122 1 0.251188 0.924378 0.36574
1088 2 0.204298 0.882846 0.370556
286 1 0.224709 0.820523 0.368608
797 1 0.191407 0.888768 0.393009
1135 1 0.0983293 0.72473 0.397217
89 1 0.152623 0.890057 0.357709
634 2 0.496817 0.903391 0.378243
84 3 0.271843 0.775612 0.376473
762 1 0.102662 0.986724 0.349123
416 1 0.0482979 0.896942 0.356698
6 5 0.0853603 0.805098 0.367247
519 2 0.100294 0.932679 0.359574
500 5 0.479699 0.911569 0.332133
750 5 0.279219 0.771014 0.328201
747 1 0.110312 0.941408 0.381482
1036 1 0.00513338 0.531889 0.381594
572 2 0.19144 0.522896 0.397984
917 2 0.445596 0.500886 0.390512
853 5 0.153303 0.791319 0.39972
793 3 0.258299 0.998037 0.366903
510 1 0.00477449 0.622918 0.398989
815 2 0.137423 0.923965 0.399845
679 1 0.289559 0.917672 0.399738
1007 1 0.182937 0.599131 0.481561
12 5 0.0821911 0.74355 0.480983
1157 1 0.0988387 0.65215 0.473213
844 2 0.244034 0.744748 0.490432
531 1 0.222271 0.740985 0.426412
718 1 0.249323 0.643327 0.426488
620 2 0.200958 0.681276 0.433348
135 1 0.188157 0.672161 0.454469
398 5 0.0176948 0.635452 0.454389
1058 1 0.142886 0.672067 0.423047
670 1 0.141504 0.580664 0.449706
444 1 0.152509 0.536519 0.415089
445 3 0.150303 0.522185 0.438723
994 5 0.0634648 0.565888 0.416983
637 1 0.158143 0.978826 0.409778
446 1 0.0366184 0.691293 0.423527
1137 2 0.0948242 0.713494 0.418447
1169 2 0.151761 0.626156 0.464655
1083 1 0.334626 0.633272 0.477427
213 5 0.37686 0.534173 0.479127
1002 1 0.280524 0.521652 0.470677
1018 2 0.302891 0.639817 0.496468
349 1 0.255843 0.683853 0.497227
1197 2 0.454875 0.747266 0.469742
749 1 0.406662 0.703007 0.468187
554 5 0.447165 0.662692 0.497992
238 1 0.493905 0.556563 0.43113
501 5 0.449362 0.636289 0.420507
499 1 0.429349 0.720689 0.427713
528 1 0.424041 0.603185 0.459185
1049 3 0.458913 0.548063 0.451407
1031 1 0.343542 0.650735 0.443438
789 1 0.301237 0.559646 0.437332
562 1 0.335616 0.733593 0.410642
575 1 0.250234 0.509769 0.403956
45 1 0.215395 0.50043 0.497059
847 1 0.338864 0.615238 0.409981
911 2 0.30869 0.619037 0.428528
740 2 0.27438 0.512958 0.44946
1038 2 0.378633 0.650001 0.461648
426 1 0.0609525 0.844001 0.472683
1087 1 0.123026 0.941445 0.483423
11 1 0.181035 0.75425 0.487121
167 5 0.144063 0.843731 0.491483
862 1 0.00802431 0.969667 0.535103
374 1 0.247342 0.882907 0.484758
20 1 0.156398 0.996027 0.455062
705 2 0.227977 0.886181 0.44825
183 2 0.244051 0.878089 0.406424
603 1 0.221688 0.885474 0.425968
475 5 0.0164706 0.888958 0.432707
823 5 0.167285 0.779138 0.45384
180 5 0.0855255 0.851018 0.440813
35 1 0.109558 0.764976 0.430525
594 1 0.166626 0.890231 0.454851
988 2 0.131087 0.939911 0.462141
993 5 0.0116665 0.845198 0.40402
892 1 0.0719389 0.940416 0.452682
997 5 0.0235274 0.770027 0.446194
334 1 0.101934 0.881096 0.410299
941 1 0.346856 0.951011 0.479095
764 1 0.346531 0.819449 0.473217
881 1 0.276337 0.745792 0.471058
1015 3 0.27754 0.9524 0.479495
434 1 0.265761 0.791827 0.50283
294 1 0.439909 0.909054 0.475327
293 1 0.461388 0.764906 0.490344
952 2 0.429022 0.5113 0.578035
874 2 0.408915 0.965345 0.474936
173 1 0.00764231 0.529648 0.443532
140 1 0.398556 0.81519 0.419979
699 1 0.392837 0.919573 0.414638
958 3 0.402513 0.856629 0.466624
325 1 0.4427 0.802891 0.459302
277 1 0.475096 0.881992 0.431236
361 5 0.0121409 0.605021 0.546601
898 3 0.435753 0.967871 0.406585
356 2 0.411096 0.875051 0.428159
1034 1 0.380474 0.883288 0.44664
226 1 0.261977 0.936287 0.455071
138 1 0.336631 0.766851 0.442549
1156 3 0.268938 0.750981 0.409843
513 2 0.306075 0.790527 0.45964
980 5 0.339105 0.973636 0.437489
86 1 0.418961 0.998172 0.456934
144 2 0.376241 0.754664 0.42569
942 1 0.259989 0.830577 0.452161
1189 5 0.147494 0.679846 0.504873
549 1 0.0792229 0.673696 0.526855
1147 5 0.0867433 0.603596 0.502867
665 2 0.0293277 0.713956 0.528698
657 1 0.172692 0.584558 0.518954
1112 3 0.208955 0.57023 0.50004
618 5 0.242525 0.514629 0.529877
655 5 0.202055 0.660524 0.536496
120 1 0.223009 0.613071 0.565596
910 5 0.121307 0.599792 0.544081
182 1 0.134303 0.556012 0.572925
39 1 0.0651433 0.522619 0.540919
616 1 0.026173 0.649857 0.576787
506 1 0.137432 0.652063 0.585465
1142 5 0.0346601 0.554798 0.574298
820 2 0.0768185 0.671313 0.588249
751 1 0.16748 0.72344 0.556952
145 1 0.0833951 0.735762 0.581603
1061 2 0.173463 0.602415 0.579419
307 2 0.366679 0.700956 0.525826
678 1 0.349515 0.660433 0.510243
568 5 0.341132 0.543353 0.520942
168 1 0.276376 0.584991 0.501682
386 1 0.263782 0.81606 0.402005
978 2 0.464391 0.518531 0.507323
283 1 0.400268 0.750991 0.517318
387 1 0.421152 0.563107 0.503026
581 1 0.41566 0.67142 0.537919
902 1 0.407267 0.680171 0.571882
181 1 0.430513 0.575425 0.577974
1170 2 0.439637 0.701947 0.555628
541 5 0.39394 0.576522 0.540282
281 1 0.302638 0.59046 0.544322
79 1 0.3208 0.725185 0.537861
1 1 0.327535 0.600751 0.577356
143 1 0.261981 0.519672 0.56887
1028 3 0.389914 0.6263 0.584104
534 2 0.281045 0.579229 0.564151
886 5 0.26635 0.724947 0.56241
490 5 0.118625 0.816664 0.52537
1050 1 0.0813978 0.904159 0.513515
474 1 0.159804 0.974884 0.513173
7 1 0.0203792 0.745395 0.510098
576 2 0.105767 0.956016 0.503608
545 2 0.218717 0.993006 0.519108
246 1 0.204335 0.860547 0.516062
702 1 0.0376527 0.760683 0.544061
841 5 0.249389 0.799606 0.537181
1116 1 0.219266 0.951754 0.589245
1141 1 0.234965 0.974879 0.538558
268 1 0.46137 0.503999 0.528713
262 1 0.174725 0.762574 0.591168
727 3 0.0847234 0.874388 0.566956
860 2 0.0620822 0.979389 0.546699
451 5 0.174181 0.96721 0.563343
405 1 0.0891224 0.901544 0.588152
765 1 0.12499 0.819182 0.567435
399 5 0.185521 0.887332 0.546442
376 1 0.096887 0.926791 0.551835
482 1 0.0236422 0.851803 0.562115
252 1 0.00206762 0.93463 0.485514
567 2 0.139438 0.756908 0.572388
1011 2 0.257892 0.85773 0.503912
1184 1 0.311717 0.880674 0.513013
495 1 0.395599 0.937621 0.525118
1093 2 0.371823 0.878148 0.52073
41 1 0.26087 0.973091 0.503777
1113 1 0.496332 0.807805 0.521144
511 1 0.412814 0.846616 0.50724
83 2 0.445094 0.791435 0.508992
368 2 0.39957 0.821768 0.556866
414 1 0.453232 0.972352 0.554422
719 3 0.45885 0.960899 0.531443
1095 1 0.453553 0.794395 0.590558
315 1 0.428553 0.76653 0.554369
484 1 0.438564 0.871372 0.560568
450 2 0.434823 0.930681 0.569362
360 1 0.45649 0.932013 0.589455
731 1 0.352354 0.825693 0.571396
905 1 0.371493 0.94466 0.572641
1115 1 0.28932 0.769185 0.590284
310 5 0.304976 0.918865 0.550051
816 1 0.253746 0.843273 0.565089
221 2 0.294361 0.82711 0.580651
592 1 0.367982 0.842773 0.538677
1023 1 0.287211 0.874922 0.595124
234 3 0.366675 0.990762 0.588961
70 2 0.00698831 0.872648 0.479146
544 1 0.20976 0.591115 0.597193
685 2 0.0215153 0.509088 0.525455
949 5 0.00108744 0.880032 0.523387
1180 5 0.382153 0.736755 0.599525
1062 5 0.493308 0.822218 0.406878
913 5 0.0239515 0.684701 0.672834
68 1 0.228531 0.567214 0.631476
852 2 0.240295 0.693902 0.667108
440 5 0.237447 0.707092 0.605836
329 1 0.222628 0.654897 0.651926
950 2 0.191394 0.603391 0.644748
710 1 0.217784 0.75506 0.658979
1123 1 0.36077 0.975531 0.610931
1166 1 0.210929 0.680163 0.685205
627 1 0.0597562 0.584033 0.672742
521 1 0.186947 0.85698 0.60365
99 2 0.494496 0.936231 0.606572
867 5 0.374659 0.85127 0.6068
819 1 0.0642434 0.645226 0.608038
1020 1 0.0203103 0.751439 0.639632
609 2 0.0900556 0.600592 0.622285
704 1 0.17795 0.562983 0.662226
891 1 0.113528 0.543754 0.611997
455 1 0.137359 0.622201 0.635045
955 1 0.0480251 0.579472 0.636742
437 5 0.169946 0.59254 0.690112
483 1 0.459221 0.531177 0.622519
1008 1 0.417055 0.727427 0.652574
104 5 0.262295 0.856291 0.686077
177 3 0.329992 0.842388 0.645526
1191 1 0.469593 0.757403 0.621842
1074 2 0.424978 0.549492 0.640036
106 1 0.458119 0.589356 0.651751
393 5 0.0655286 0.570799 0.703527
119 1 0.392792 0.643446 0.606165
217 1 0.261052 0.844722 0.644864
125 1 0.304816 0.698655 0.667083
1125 2 0.255565 0.579609 0.612356
186 2 0.35006 0.730347 0.654068
923 1 0.291964 0.629342 0.614247
733 1 0.2978 0.531851 0.606985
927 1 0.342564 0.692091 0.634501
363 1 0.371945 0.582582 0.632047
129 2 0.351056 0.63897 0.623005
17 2 0.492383 0.753958 0.601528
960 1 0.288636 0.922344 0.664261
937 3 0.239033 0.91734 0.647986
442 2 0.233322 0.902799 0.602829
1167 2 0.209741 0.801586 0.644626
588 1 0.21082 0.778227 0.624786
653 1 0.244254 0.918331 0.622829
1110 2 0.349247 0.964552 0.631772
80 1 0.160365 0.843584 0.645431
712 1 0.110182 0.785728 0.617188
1067 2 0.169701 0.798581 0.609052
345 1 0.0324564 0.846278 0.628332
802 2 0.0483824 0.785587 0.621775
244 3 0.130507 0.904947 0.64215
324 1 0.177541 0.944662 0.65099
1124 2 0.0701409 0.941414 0.603858
1003 1 0.0702777 0.90389 0.654976
236 1 0.0121546 0.759069 0.607028
502 2 0.0153047 0.880329 0.64619
60 1 0.106841 0.932054 0.621272
1106 1 0.371706 0.791365 0.63071
1176 5 0.445053 0.80359 0.681761
338 1 0.460435 0.822836 0.649442
838 1 0.470694 0.970424 0.623227
491 2 0.432911 0.773706 0.638357
132 1 0.344881 0.789358 0.662113
908 1 0.353153 0.900561 0.635723
1046 1 0.00660757 0.925667 0.603631
906 2 0.018065 0.575896 0.656503
1014 1 0.395058 0.999019 0.643516
38 3 0.498961 0.500754 0.607155
1131 5 0.0712603 0.99999 0.683007
285 1 0.700716 0.167312 0.381722
725 1 0.638765 0.04931 0.366716
464 1 0.686608 0.10661 0.341274
676 1 0.752782 0.35689 0.372781
1178 2 0.723451 0.215961 0.369926
1026 1 0.766896 0.190141 0.356728
1092 2 0.689683 0.0548962 0.354118
810 1 0.741601 0.0619693 0.36839
692 2 0.789997 0.373258 0.356032
1016 5 0.570664 0.128759 0.368108
321 1 0.535989 0.0393153 0.368457
934 1 0.532997 0.224684 0.368562
1148 2 0.589057 0.0259351 0.379043
757 1 0.548846 0.161652 0.340931
555 1 0.765886 0.410572 0.340513
328 2 0.539346 0.222268 0.346765
497 5 0.683689 0.450391 0.319077
614 1 0.958453 0.191221 0.36566
1073 2 0.801188 0.0523984 0.374633
745 3 0.902564 0.420385 0.358304
818 2 0.853619 0.0962108 0.337071
1010 1 0.875727 0.269219 0.375353
330 1 0.893752 0.145178 0.341352
540 5 0.829369 0.180286 0.384364
957 1 0.93034 0.0167607 0.392761
992 5 0.973219 0.0754672 0.349848
288 2 0.924715 0.196471 0.345675
1068 1 0.800572 0.123679 0.330448
990 1 0.840747 0.0672518 0.357604
1163 1 0.818172 0.0946186 0.390717
107 1 0.886402 0.0522472 0.326787
585 3 0.743533 0.15179 0.338313
940 1 0.592749 0.344105 0.381239
688 1 0.683858 0.262976 0.325018
729 1 0.641984 0.343992 0.348059
16 2 0.651145 0.28229 0.341183
396 1 0.748499 0.472003 0.376825
254 2 0.686129 0.485454 0.373468
845 1 0.522255 0.00761142 0.332264
77 1 0.657755 0.426769 0.371329
1096 1 0.753845 0.255453 0.383986
984 1 0.684513 0.253268 0.358247
121 5 0.59472 0.0852752 0.326338
389 1 0.986857 0.197563 0.334997
267 1 0.591307 0.258765 0.342624
774 1 0.56046 0.410744 0.357102
1192 2 0.612494 0.382139 0.364657
822 5 0.61077 0.249981 0.389868
799 2 0.764347 0.319769 0.389857
436 1 0.931489 0.440709 0.3389
299 1 0.912062 0.350705 0.357838
1200 1 0.831638 0.414532 0.36709
261 1 0.895571 0.251213 0.341658
947 2 0.877657 0.298089 0.355934
467 2 0.875957 0.28336 0.396561
732 2 0.811983 0.460685 0.380777
341 1 0.942164 0.447034 0.374489
493 5 0.912024 0.105952 0.389328
1045 1 0.819235 0.320492 0.350353
1146 5 0.963898 0.22206 0.395047
840 1 0.592361 0.0555155 0.398302
921 5 0.954445 0.00697537 0.327895
904 5 0.990323 0.330724 0.379148
297 1 0.823961 0.321601 0.399104
686 2 0.997238 0.469783 0.379121
1175 1 0.5862 0.160112 0.399906
1019 5 0.547444 0.109799 0.46356
1030 2 0.533976 0.248544 0.486623
146 1 0.575948 0.20584 0.478544
691 1 0.630246 0.122836 0.488662
713 1 0.64207 0.0208609 0.494885
613 2 0.636534 0.181143 0.478353
179 1 0.678612 0.214847 0.490097
469 5 0.719722 0.0375183 0.478575
783 1 0.678133 0.0612447 0.451799
2 1 0.616681 0.10996 0.428834
454 1 0.650256 0.164825 0.457787
401 5 0.727664 0.22337 0.457041
128 5 0.610628 0.00492664 0.462188
489 1 0.716949 0.139702 0.432234
864 2 0.664133 0.117543 0.44314
795 5 0.667345 0.201075 0.412158
770 1 0.521693 0.0137077 0.455183
3 2 0.578242 0.1065 0.411378
30 1 0.517951 0.0967961 0.418583
693 5 0.773813 0.224818 0.500634
478 1 0.786231 0.119688 0.475221
682 5 0.943532 0.115539 0.48791
253 5 0.895886 0.0609039 0.467097
622 2 0.832771 0.165142 0.47369
394 1 0.992869 0.0415784 0.474068
116 1 0.858059 0.163766 0.493798
115 1 0.519133 0.244846 0.406211
199 5 0.853001 0.0128561 0.409884
683 1 0.988149 0.25837 0.455889
782 1 0.811149 0.224011 0.46989
664 1 0.663037 0.48948 0.429513
582 5 0.920027 0.211823 0.43756
1179 5 0.971666 0.126683 0.45227
522 5 0.803156 0.190569 0.427997
214 1 0.874117 0.2287 0.407505
829 1 0.876862 0.150717 0.458866
1077 3 0.512163 0.498406 0.421465
95 5 0.774698 0.0537288 0.449482
517 5 0.744811 0.126733 0.402792
880 1 0.513649 0.418177 0.472601
466 1 0.526147 0.298157 0.473815
218 5 0.597884 0.365406 0.47245
1052 5 0.696435 0.308888 0.486709
1168 5 0.737701 0.410016 0.491953
546 2 0.601723 0.291988 0.442363
721 5 0.625185 0.388995 0.410547
593 3 0.665914 0.481647 0.452878
433 1 0.717382 0.363228 0.438263
312 1 0.647105 0.288831 0.425166
1004 2 0.756429 0.399885 0.450148
44 2 0.708622 0.314425 0.424236
57 1 0.636942 0.28435 0.460071
37 1 0.719811 0.334145 0.404947
669 1 0.723928 0.448678 0.459658
767 1 0.601505 0.462532 0.459519
586 1 0.577323 0.350812 0.439871
536 1 0.515637 0.454961 0.43972
1133 1 0.556522 0.248526 0.438433
863 2 0.538185 0.463291 0.459509
1091 1 0.79202 0.369097 0.465553
761 3 0.849551 0.367928 0.480789
476 5 0.906901 0.246147 0.47351
357 2 0.886375 0.478676 0.497117
263 1 0.902272 0.339985 0.470328
1138 1 0.949901 0.470063 0.494427
735 1 0.857103 0.436611 0.484657
636 1 0.876027 0.48565 0.428843
674 1 0.82338 0.445163 0.401509
64 2 0.815321 0.471463 0.421706
687 1 0.503173 0.0829938 0.492252
131 1 0.929762 0.311924 0.403587
1021 5 0.83747 0.305731 0.445487
1190 5 0.940758 0.428507 0.413826
1035 5 0.9206 0.439887 0.458176
103 1 0.793748 0.428346 0.435789
672 1 0.753351 0.271173 0.429594
1121 2 0.562505 0.139294 0.526658
1109 1 0.504908 0.159973 0.521378
164 1 0.585317 0.0839674 0.517476
73 2 0.59143 0.257766 0.524234
58 1 0.690632 0.0971257 0.515252
901 2 0.637813 0.0783514 0.504301
304 1 0.599013 0.191066 0.52257
1041 1 0.571608 0.134175 0.548528
936 1 0.725326 0.0460593 0.59305
1139 1 0.654719 0.0979904 0.567208
53 1 0.680774 0.145047 0.595445
626 2 0.615148 0.149567 0.563574
210 5 0.736649 0.0701459 0.541541
339 2 0.702002 0.095539 0.581975
43 5 0.702578 0.199947 0.527431
369 1 0.650113 0.202569 0.559856
971 1 0.695324 0.246458 0.589172
976 5 0.530854 0.379562 0.407197
830 1 0.580211 0.161627 0.581623
350 2 0.566599 0.0301465 0.590174
250 2 0.538986 0.189236 0.595415
1195 1 0.516657 0.0697793 0.588642
487 5 0.512771 0.058296 0.552196
1154 5 0.783176 0.105709 0.507952
515 5 0.8842 0.0804649 0.515913
408 1 0.962955 0.13545 0.522049
384 5 0.894855 0.217868 0.516813
224 1 0.810788 0.0264904 0.522241
794 1 0.953997 0.00798974 0.509283
1198 1 0.818467 0.193723 0.556287
157 1 0.922872 0.0396331 0.579804
746 1 0.995255 0.170088 0.423414
1005 1 0.850877 0.0861189 0.560088
332 1 0.966639 0.131676 0.558502
1187 2 0.887955 0.0312725 0.561583
809 2 0.985737 0.138316 0.579031
677 1 0.989178 0.217318 0.540388
118 2 0.815936 0.137992 0.566709
147 1 0.916782 0.0150958 0.543579
570 1 0.941921 0.159986 0.59357
200 2 0.994644 0.153751 0.539743
273 1 0.835629 0.157588 0.586452
228 1 0.756428 0.112472 0.570457
895 1 0.537436 0.388334 0.504525
427 2 0.593082 0.410037 0.51195
726 1 0.858079 0.000528555 0.446575
509 1 0.591859 0.406278 0.533121
878 1 0.56184 0.270804 0.50536
924 1 0.602393 0.472348 0.506578
612 1 0.746192 0.324158 0.514103
235 1 0.644679 0.292716 0.528244
279 1 0.645933 0.376776 0.506133
899 1 0.73628 0.480304 0.513752
948 3 0.685746 0.345403 0.523185
431 2 0.699737 0.480758 0.586472
379 2 0.720512 0.461471 0.534064
720 1 0.74506 0.278238 0.558212
890 1 0.744714 0.442486 0.594898
831 2 0.629038 0.383244 0.575188
98 1 0.741551 0.336902 0.586877
203 2 0.706101 0.29212 0.574561
716 1 0.705756 0.39881 0.536585
391 1 0.669812 0.435565 0.574027
351 1 0.655035 0.326334 0.569089
172 1 0.668544 0.493923 0.539259
557 2 0.501701 0.241894 0.426735
1119 3 0.551008 0.431605 0.54882
1056 1 0.545722 0.270048 0.538738
850 1 0.568333 0.395469 0.567813
1081 5 0.576646 0.258744 0.56789
336 1 0.865291 0.471561 0.517022
884 1 0.826111 0.275658 0.530471
843 5 0.92337 0.390537 0.522859
488 1 0.983812 0.313337 0.51955
825 2 0.808512 0.329107 0.519869
133 1 0.841799 0.340021 0.502268
18 1 0.799734 0.401624 0.568296
982 3 0.813452 0.264719 0.552631
1102 1 0.882196 0.451211 0.554866
769 1 0.852394 0.300672 0.567771
291 1 0.919255 0.364048 0.587445
1158 1 0.927582 0.263751 0.589112
623 1 0.985613 0.460577 0.573454
1100 2 0.822564 0.426164 0.550048
946 1 0.951276 0.309339 0.558144
869 3 0.989994 0.286752 0.541022
742 2 0.911393 0.313027 0.574891
266 1 0.977843 0.470309 0.534592
529 1 0.82184 0.377664 0.535069
530 3 0.943248 0.480843 0.555355
737 2 0.778411 0.391316 0.587774
189 1 0.77814 0.469027 0.544406
1044 1 0.592073 0.0116492 0.571706
152 1 0.623491 0.380169 0.597217
736 5 0.838482 0.0379623 0.596403
300 2 0.565586 0.211512 0.647744
1043 1 0.627608 0.222087 0.654096
788 1 0.722271 0.178462 0.651669
354 2 0.703845 0.200718 0.604041
441 2 0.635888 0.014107 0.623558
748 1 0.676111 0.215784 0.622857
875 1 0.614226 0.0415491 0.605011
1152 1 0.663419 0.0551253 0.636699
122 5 0.639164 0.133203 0.661918
46 5 0.722441 0.0446469 0.665705
656 2 0.68837 0.230763 0.644248
355 1 0.727746 0.400444 0.653239
539 1 0.541049 0.15335 0.647319
1025 1 0.536261 0.156223 0.61357
240 1 0.5598 0.253168 0.60035
601 1 0.536824 0.252957 0.634874
56 1 0.828017 0.379112 0.600588
430 5 0.805396 0.286862 0.609711
932 1 0.811135 0.0576259 0.651736
194 5 0.929769 0.0362962 0.694321
1182 5 0.901843 0.179737 0.669749
33 5 0.892961 0.113052 0.643468
383 1 0.969722 0.160782 0.650602
93 1 0.972367 0.213775 0.619655
1108 5 0.981121 0.0179194 0.612476
666 1 0.869002 0.220273 0.612299
615 1 0.940787 0.0244136 0.640259
975 5 0.929819 0.0860241 0.611507
335 1 0.843647 0.121222 0.619382
292 2 0.829328 0.170481 0.607042
1151 1 0.767325 0.191596 0.608277
448 5 0.753176 0.0962126 0.627965
223 1 0.605174 0.421349 0.62714
933 2 0.634137 0.370521 0.618113
642 2 0.726292 0.452133 0.664931
527 1 0.69765 0.368479 0.622956
498 1 0.997727 0.418796 0.606245
457 2 0.733592 0.349863 0.640101
771 1 0.708401 0.291567 0.645265
301 5 0.819389 0.498108 0.613786
1130 2 0.555722 0.460628 0.630447
641 1 0.548081 0.487873 0.648949
463 2 0.548786 0.288072 0.617927
1009 1 0.607388 0.314288 0.623398
507 2 0.929382 0.216407 0.603943
524 1 0.507919 0.335703 0.615299
453 1 0.871636 0.493794 0.644263
963 1 0.860074 0.395136 0.656925
1080 2 0.892281 0.392849 0.605226
65 1 0.896585 0.362064 0.624743
1132 2 0.847246 0.457162 0.659334
887 2 0.863349 0.34287 0.643249
675 1 0.792406 0.461296 0.668286
909 5 0.986301 0.425975 0.660247
569 1 0.794459 0.338774 0.639257
1040 1 0.883315 0.288055 0.651184
193 1 0.504973 0.434871 0.61864
136 5 0.99078 0.313131 0.616016
972 1 0.894291 0.457506 0.604352