ITEM: TIMESTEP
2400
ITEM: NUMBER OF ATOMS
1200
ITEM: BOX BOUNDS pp pp pp
-7.6266250050336382e-02 2.5098596345622489e+01
-7.6266250050336382e-02 2.5098596345622489e+01
-2.5251128845723162e+01 5.0273458941295317e+01
ITEM: ATOMS id type xs ys zs
760 1 0.0774406 0.1458 0.392016
419 1 0.219849 0.136221 0.369045
108 1 0.217955 0.0389188 0.35367
96 1 0.0420785 0.0484496 0.390552
1076 1 0.171324 0.106141 0.335301
1193 1 0.1042 0.0782475 0.363291
580 5 0.159817 0.217407 0.35485
269 2 0.0305471 0.218357 0.342428
638 5 0.156512 0.167498 0.311691
390 2 0.0932817 0.0857281 0.384431
645 3 0.146106 0.054911 0.346119
967 1 0.0710447 0.188937 0.32987
542 1 0.144551 0.0662493 0.396574
804 1 0.225181 0.0031725 0.387241
1149 3 0.229055 0.104733 0.348444
660 1 0.27353 0.253524 0.350846
412 2 0.363226 0.360006 0.347256
992 5 0.0290247 0.0970154 0.34149
635 5 0.34258 0.19687 0.331857
787 1 0.404792 0.234996 0.354377
314 1 0.444148 0.184703 0.389111
590 2 0.484489 0.236138 0.386509
559 1 0.426762 0.0325154 0.357976
973 5 0.39739 0.110683 0.342928
468 2 0.393045 0.1472 0.393315
1174 1 0.287864 0.121629 0.338191
1037 1 0.37408 0.104829 0.378816
432 5 0.311954 0.178834 0.36442
196 2 0.379259 0.0412011 0.372443
465 1 0.323843 0.0143011 0.366083
907 1 0.398915 0.0133093 0.390675
1159 2 0.429116 0.348034 0.384871
929 1 0.489001 0.24506 0.335393
628 1 0.401129 0.318501 0.336476
151 1 0.382266 0.3505 0.368737
1173 1 0.0635714 0.333298 0.396286
26 5 0.183257 0.421561 0.332831
577 2 0.0920356 0.480577 0.365067
82 1 0.198556 0.330914 0.344686
382 5 0.208024 0.207976 0.390049
40 5 0.101856 0.342986 0.3417
813 1 0.0339957 0.46447 0.372906
403 5 0.160638 0.344914 0.37634
834 1 0.125539 0.483282 0.383982
418 1 0.0542213 0.261926 0.354866
915 1 0.117371 0.429927 0.352857
904 5 0.0261965 0.353441 0.368942
290 1 0.341241 0.182233 0.398396
1071 1 0.257498 0.329158 0.374747
456 1 0.481427 0.328425 0.353261
917 2 0.43871 0.492506 0.392067
935 2 0.44309 0.278918 0.345419
893 5 0.342196 0.259938 0.378079
460 1 0.36988 0.425314 0.344798
1053 1 0.300786 0.348973 0.344404
565 5 0.304266 0.418939 0.377934
346 2 0.255463 0.314484 0.353685
703 2 0.41118 0.467487 0.354194
241 1 0.44988 0.288591 0.384967
373 1 0.4001 0.466084 0.376123
1171 1 0.469049 0.442722 0.348881
409 1 0.476859 0.390991 0.381053
397 2 0.0333691 0.219889 0.472999
885 5 0.194739 0.208627 0.471484
1185 5 0.118523 0.15399 0.486652
88 1 0.0259949 0.158605 0.478511
28 1 0.214884 0.119037 0.491407
62 5 0.249347 0.0286493 0.447617
953 5 0.0946904 0.0163014 0.429427
1060 5 0.160377 0.205423 0.434745
137 5 0.16757 0.0918834 0.439096
377 2 0.0566702 0.165308 0.412089
537 1 0.220519 0.0454908 0.41873
15 5 0.0748062 0.0745334 0.467831
353 1 0.0688755 0.232205 0.410232
1024 1 0.0844688 0.132476 0.427834
1070 2 0.186598 0.0214874 0.403248
20 1 0.148641 0.0142964 0.453637
1017 1 0.0922342 0.232301 0.465546
208 1 0.226778 0.48787 0.439085
472 1 0.250207 0.0251589 0.478882
75 1 0.313709 0.096126 0.495619
375 2 0.263929 0.0880731 0.481677
206 1 0.256225 0.234009 0.495354
407 1 0.479124 0.219321 0.493127
247 5 0.387673 0.113264 0.470906
378 2 0.446894 0.0250672 0.447503
516 1 0.439407 0.0915306 0.446534
406 1 0.472355 0.18188 0.432543
91 1 0.414545 0.120232 0.411447
920 2 0.456826 0.120334 0.42737
851 1 0.414445 0.495316 0.454281
858 1 0.256734 0.167111 0.432362
443 2 0.302693 0.136679 0.443239
14 1 0.325253 0.0866158 0.432447
968 1 0.279809 0.11423 0.462502
72 1 0.348501 0.177302 0.450542
922 5 0.33876 0.224891 0.47594
1194 5 0.322266 0.42312 0.56786
556 1 0.166327 0.483994 0.596466
86 1 0.401489 0.00175363 0.460935
779 5 0.141814 0.444038 0.474279
242 1 0.0255838 0.259589 0.490485
754 1 0.0410408 0.454719 0.470183
78 5 0.15759 0.300981 0.480963
663 1 0.117862 0.359284 0.45999
1079 5 0.231822 0.429667 0.411517
435 1 0.188048 0.286183 0.448442
871 3 0.0214268 0.433052 0.491079
130 5 0.00189305 0.336574 0.584024
827 1 0.0968684 0.311102 0.429981
689 2 0.146867 0.333227 0.442558
722 1 0.105323 0.475177 0.442866
1128 2 0.0431416 0.463743 0.448552
249 2 0.095243 0.29211 0.40865
265 1 0.179359 0.37612 0.431078
741 5 0.0835488 0.414335 0.413483
188 5 0.243984 0.314047 0.41011
364 1 0.0203285 0.366195 0.493993
1039 5 0.263424 0.370157 0.453452
322 5 0.375185 0.235734 0.423907
32 5 0.286483 0.267754 0.446385
861 1 0.479743 0.494172 0.596051
1105 1 0.327908 0.345416 0.535857
34 1 0.249947 0.423125 0.482616
998 1 0.404152 0.356069 0.403911
102 5 0.485424 0.363136 0.447903
1078 1 0.385043 0.413112 0.47229
564 2 0.374134 0.369654 0.487981
139 5 0.25272 0.330506 0.491633
547 1 0.316916 0.487516 0.498883
561 1 0.350376 0.319727 0.476448
256 2 0.263347 0.484911 0.487627
447 2 0.479967 0.407037 0.493136
4 1 0.434008 0.359275 0.495939
204 1 0.449337 0.461434 0.500658
608 1 0.458674 0.461954 0.409506
696 5 0.429567 0.285734 0.463391
996 1 0.455443 0.284361 0.432552
109 1 0.327265 0.320973 0.42486
694 1 0.322915 0.457604 0.447591
494 2 0.363507 0.370493 0.419191
308 1 0.396247 0.398304 0.437059
633 1 0.324754 0.418257 0.410217
410 2 0.382546 0.440245 0.452574
69 2 0.208626 0.210492 0.596967
640 1 0.0452522 0.000363054 0.570378
550 1 0.135648 0.111216 0.51785
574 5 0.0377925 0.10422 0.51009
1155 1 0.135083 0.225309 0.504532
520 2 0.196142 0.119562 0.512001
811 1 0.228356 0.0662373 0.518909
643 1 0.219427 0.172369 0.521113
785 1 0.108191 0.081079 0.582228
857 1 0.205238 0.0600734 0.579332
114 2 0.242459 0.0195029 0.590275
1089 1 0.00890716 0.0831727 0.591095
1006 1 0.0523057 0.143664 0.54055
738 3 0.0886708 0.217583 0.59203
647 2 0.163036 0.108959 0.575718
192 1 0.155179 0.119041 0.554944
632 1 0.0343102 0.181428 0.583963
897 2 0.0575052 0.0420759 0.587027
826 3 0.108723 0.10392 0.538585
680 1 0.0880031 0.0395502 0.543656
548 1 0.18399 0.159665 0.586728
803 5 0.195297 0.203493 0.55198
219 1 0.125462 0.235955 0.573517
296 1 0.0664484 0.0138666 0.496749
211 5 0.316321 0.0171435 0.410023
991 5 0.341696 0.119451 0.59737
10 1 0.259493 0.230179 0.584898
23 1 0.349521 0.0865646 0.528072
298 2 0.263525 0.217754 0.515786
101 1 0.316355 0.180538 0.516431
854 2 0.348966 0.126421 0.511349
470 2 0.459186 0.183159 0.510054
413 1 0.436521 0.222063 0.525204
684 1 0.483861 0.0183982 0.521055
833 1 0.409392 0.142594 0.505536
81 1 0.419352 0.0292271 0.585497
961 2 0.452157 0.0842923 0.585086
900 3 0.422319 0.225734 0.589985
945 5 0.486913 0.193165 0.552655
42 1 0.484639 0.197991 0.586109
1161 1 0.436306 0.111889 0.566316
1066 5 0.384747 0.172326 0.549322
596 1 0.291634 0.172406 0.558606
1199 2 0.311075 0.218321 0.572206
220 1 0.304944 0.0255974 0.585253
646 5 0.267018 0.0831854 0.54759
837 5 0.366672 0.0548061 0.558708
438 1 0.362758 0.2007 0.582642
392 1 0.0154695 0.411481 0.44033
930 2 0.497262 0.0150973 0.500298
1059 1 0.0034335 0.471429 0.407216
1117 5 0.115896 0.363121 0.593175
604 5 0.00101298 0.275925 0.430086
1001 2 0.139215 0.276601 0.517377
92 1 0.0858841 0.311674 0.514305
916 1 0.0547496 0.471208 0.507011
605 1 0.188563 0.311941 0.512654
424 2 0.0278533 0.310151 0.503991
798 5 0.197625 0.403893 0.509646
317 3 0.222058 0.467177 0.582902
611 1 0.238095 0.340541 0.551781
215 1 0.198577 0.422115 0.568496
367 5 0.0650335 0.402897 0.5299
366 1 0.0496412 0.300363 0.554938
759 1 0.14612 0.333154 0.563616
231 2 0.111624 0.28105 0.558032
153 1 0.137675 0.263327 0.538801
127 1 0.153724 0.404739 0.53828
352 1 0.0563097 0.474078 0.594373
174 2 0.185983 0.376254 0.554146
439 5 0.0907874 0.461268 0.563121
105 2 0.286822 0.303825 0.545591
1054 5 0.00843266 0.350745 0.462858
372 1 0.353784 0.345983 0.592809
706 1 0.429367 0.480153 0.563255
977 1 0.265297 0.2583 0.532175
535 1 0.278552 0.435029 0.530267
227 1 0.432219 0.287433 0.578778
340 1 0.371238 0.479889 0.59196
966 1 0.386684 0.431291 0.531361
784 2 0.437226 0.452388 0.543495
348 5 0.481883 0.330416 0.553858
303 1 0.488685 0.414444 0.541973
558 5 0.255537 0.333879 0.587796
100 2 0.330534 0.402589 0.524585
1013 1 0.335889 0.382657 0.504636
652 5 0.404904 0.296733 0.544444
1099 1 0.403834 0.373458 0.562582
344 1 0.451589 0.383411 0.592524
812 2 0.408403 0.347353 0.582455
1118 1 0.275119 0.437279 0.59462
943 5 0.482424 0.313577 0.521498
1057 1 0.319402 0.272028 0.561088
479 1 0.437067 0.00464542 0.427626
395 5 0.346842 0.0107533 0.508908
309 5 0.266161 0.115754 0.402088
487 5 0.498516 0.0564417 0.549848
518 1 0.0667841 0.279801 0.598233
880 1 0.496537 0.424935 0.472555
557 2 0.498552 0.238501 0.428159
533 1 0.153141 0.283781 0.400172
1131 5 0.208063 0.00635736 0.6681
142 1 0.192779 0.116352 0.673991
711 5 0.134214 0.0244032 0.632825
700 1 0.142409 0.156593 0.64378
359 1 0.214778 0.0757654 0.642551
1126 1 0.111681 0.185558 0.612103
47 2 0.110191 0.203243 0.632792
94 1 0.050271 0.214353 0.641542
230 2 0.195803 0.131379 0.653338
986 1 0.237078 0.0373157 0.611025
1108 5 0.0409535 0.0574267 0.626937
956 1 0.340086 0.442542 0.622988
123 1 0.24469 0.172815 0.648799
610 1 0.237052 0.187395 0.615373
1094 2 0.264334 0.0541544 0.629923
1072 1 0.441537 0.170324 0.63748
753 1 0.482021 0.069027 0.632135
209 1 0.419609 0.241756 0.612628
255 1 0.336171 0.206481 0.631775
365 1 0.295855 0.111212 0.62663
111 2 0.402205 0.219189 0.632202
651 2 0.280155 0.173721 0.630896
415 1 0.432026 0.118075 0.601934
1042 2 0.491013 0.132058 0.631825
1103 2 0.469579 0.00759948 0.639368
909 5 0.0710698 0.293297 0.657951
50 5 0.0695835 0.475368 0.658223
1085 2 0.109074 0.492842 0.605781
458 1 0.142302 0.259558 0.633735
51 1 0.162802 0.421916 0.650083
343 1 0.242177 0.302376 0.630504
1114 2 0.18224 0.301683 0.62265
1145 1 0.0698338 0.37469 0.641396
870 1 0.153964 0.361016 0.621191
631 1 0.108299 0.457924 0.623937
1069 2 0.123728 0.40234 0.634572
136 5 0.0152672 0.336537 0.616463
551 1 0.183258 0.269242 0.603386
931 1 0.300873 0.0123252 0.639963
202 5 0.459211 0.356187 0.6541
1150 1 0.439819 0.414827 0.626646
525 2 0.477713 0.388731 0.611741
607 2 0.320301 0.470268 0.60487
1183 5 0.306527 0.323869 0.658106
1000 1 0.380492 0.41575 0.655827
71 2 0.389496 0.44309 0.637191
999 1 0.409643 0.268063 0.646187
31 5 0.338598 0.306611 0.622444
639 5 0.225305 0.486432 0.659936
524 1 0.491654 0.327177 0.619212
370 1 0.0956909 0.539017 0.357201
388 1 0.246337 0.730506 0.386272
1136 1 0.157809 0.743619 0.36302
1101 1 0.16243 0.581328 0.38387
763 1 0.055306 0.759284 0.369585
708 1 0.0960092 0.661826 0.372057
85 1 0.0481401 0.574389 0.388033
839 2 0.108125 0.725759 0.37499
572 2 0.17023 0.523296 0.394441
1144 3 0.0987668 0.592644 0.372549
1135 1 0.11855 0.730561 0.396055
429 5 0.220337 0.636743 0.373825
422 5 0.0021602 0.698509 0.354287
793 3 0.254726 0.996342 0.366665
734 5 0.332972 0.709742 0.373741
1033 1 0.394154 0.632061 0.340002
1064 1 0.478062 0.596352 0.360194
918 1 0.405509 0.529737 0.350239
715 2 0.412858 0.594635 0.355476
579 1 0.389832 0.611501 0.374948
124 2 0.396595 0.607555 0.396388
9 1 0.488535 0.521667 0.38149
176 5 0.298677 0.653617 0.334579
697 5 0.370616 0.931584 0.371689
84 3 0.226873 0.754268 0.365396
1122 1 0.237908 0.934075 0.358368
1088 2 0.207286 0.883659 0.366504
286 1 0.23174 0.824384 0.365082
797 1 0.194699 0.891606 0.388609
89 1 0.149982 0.884799 0.355725
416 1 0.0506897 0.925166 0.349888
6 5 0.0496122 0.858969 0.372225
519 2 0.114351 0.939517 0.355024
747 1 0.122208 0.954117 0.376258
52 5 0.354068 0.824747 0.385282
758 1 0.444078 0.858016 0.385012
750 5 0.170383 0.770289 0.328241
762 1 0.128527 0.991398 0.343108
679 1 0.297331 0.90749 0.390476
404 1 0.26358 0.721381 0.349728
926 5 0.491865 0.680059 0.374111
624 3 0.486473 0.997857 0.356181
914 1 0.488608 0.945483 0.39915
815 2 0.137085 0.920899 0.394753
1186 1 0.484326 0.934631 0.364832
634 2 0.492933 0.901583 0.383339
575 1 0.230006 0.501478 0.390775
1062 5 0.465826 0.76967 0.3969
919 1 0.408047 0.545596 0.39915
1007 1 0.180291 0.614024 0.483664
12 5 0.0856251 0.73709 0.479557
1157 1 0.0898395 0.633784 0.467207
531 1 0.222938 0.727219 0.424419
620 2 0.198708 0.671659 0.431674
135 1 0.183565 0.669167 0.452946
1058 1 0.140671 0.662661 0.422207
670 1 0.155267 0.569288 0.452226
444 1 0.155918 0.533683 0.4157
994 5 0.0332442 0.609121 0.441142
446 1 0.0380696 0.695222 0.414316
1137 2 0.102853 0.711718 0.415455
1169 2 0.152123 0.623019 0.464406
1112 3 0.206143 0.577027 0.501074
739 5 0.0619393 0.550527 0.419527
45 1 0.210042 0.509616 0.497309
445 3 0.161114 0.515166 0.437424
718 1 0.249928 0.632983 0.428154
1083 1 0.32961 0.636407 0.47765
213 5 0.385111 0.529224 0.481582
1002 1 0.272464 0.519292 0.468998
1018 2 0.306512 0.639694 0.497349
349 1 0.269559 0.695214 0.49917
749 1 0.403242 0.704526 0.46834
554 5 0.45164 0.659705 0.496671
238 1 0.484253 0.552698 0.43106
501 5 0.471054 0.655943 0.436812
499 1 0.418608 0.725449 0.431285
528 1 0.422024 0.603863 0.460627
1049 3 0.457993 0.549138 0.452895
1031 1 0.344397 0.64603 0.442722
789 1 0.309788 0.55601 0.436873
562 1 0.327275 0.734732 0.409915
847 1 0.338934 0.615416 0.407612
911 2 0.311564 0.613869 0.427435
740 2 0.282331 0.508582 0.447972
1038 2 0.374642 0.649067 0.462286
289 1 0.494708 0.913897 0.527402
387 1 0.434898 0.569497 0.504801
97 5 0.008333 0.562174 0.476765
844 2 0.238327 0.743356 0.489457
11 1 0.174786 0.730298 0.488955
637 1 0.151903 0.966806 0.409094
426 1 0.0739039 0.844171 0.471406
1087 1 0.133999 0.950994 0.480563
167 5 0.142253 0.858231 0.491371
374 1 0.232668 0.893741 0.485878
705 2 0.235657 0.90023 0.44405
603 1 0.244182 0.90909 0.422591
475 5 0.0371278 0.890003 0.425353
823 5 0.167924 0.768216 0.452822
180 5 0.113053 0.849373 0.43796
35 1 0.106381 0.756919 0.430635
594 1 0.173746 0.91094 0.450035
988 2 0.132539 0.953777 0.459235
685 2 0.0222752 0.507528 0.521227
892 1 0.0743592 0.939941 0.450142
997 5 0.0203996 0.776272 0.443596
334 1 0.0952258 0.877779 0.401371
70 2 0.0178903 0.871654 0.476776
183 2 0.252613 0.883423 0.402452
386 1 0.253825 0.819444 0.405425
170 1 0.017568 0.972095 0.412837
985 5 0.305747 0.511054 0.407706
877 1 0.441289 0.991627 0.492905
1197 2 0.452398 0.749417 0.469769
1156 3 0.260337 0.751682 0.406691
941 1 0.340276 0.957751 0.484158
764 1 0.334408 0.831229 0.471593
881 1 0.266648 0.751012 0.470267
1015 3 0.269004 0.95523 0.481725
294 1 0.430871 0.907269 0.473744
293 1 0.45834 0.76651 0.490185
252 1 0.0072956 0.932036 0.483356
874 2 0.402438 0.96312 0.478508
140 1 0.38951 0.815326 0.417815
699 1 0.390814 0.922474 0.411549
958 3 0.394994 0.856332 0.463752
325 1 0.436536 0.801851 0.459434
277 1 0.470869 0.87146 0.428721
898 3 0.433107 0.976709 0.406521
356 2 0.409272 0.874451 0.424171
1034 1 0.375931 0.880602 0.442674
226 1 0.268377 0.93979 0.456799
138 1 0.32558 0.772458 0.441876
513 2 0.294494 0.799483 0.458792
980 5 0.340113 0.968394 0.437099
144 2 0.366615 0.759438 0.42568
942 1 0.2522 0.839215 0.449705
1189 5 0.159581 0.709769 0.520008
549 1 0.0718265 0.676252 0.530294
1147 5 0.0897585 0.623853 0.504355
665 2 0.0279143 0.71941 0.527939
657 1 0.174334 0.596353 0.520511
655 5 0.246366 0.641758 0.534498
120 1 0.224897 0.608875 0.563577
910 5 0.116502 0.607934 0.546092
182 1 0.140033 0.55094 0.570934
39 1 0.0654688 0.523585 0.537055
616 1 0.0341573 0.639207 0.57406
506 1 0.139658 0.651025 0.580814
1142 5 0.0390117 0.547253 0.568753
820 2 0.0778484 0.674132 0.583802
751 1 0.173059 0.7317 0.551674
145 1 0.0863764 0.729886 0.574058
1061 2 0.1773 0.599945 0.578363
544 1 0.20904 0.592996 0.597257
7 1 0.0264366 0.739787 0.507633
886 5 0.266467 0.701997 0.564114
853 5 0.0342817 0.802218 0.405948
462 5 0.490096 0.60997 0.524822
398 5 0.0013336 0.658357 0.464477
618 5 0.257107 0.520979 0.528274
307 2 0.371207 0.696529 0.525635
678 1 0.359476 0.654404 0.510002
568 5 0.359548 0.53738 0.52322
168 1 0.272972 0.592764 0.506499
978 2 0.465075 0.515996 0.509739
581 1 0.415902 0.672435 0.538795
902 1 0.404871 0.669953 0.57195
181 1 0.413739 0.567443 0.581649
1170 2 0.44016 0.700675 0.55714
541 5 0.414509 0.578947 0.549622
281 1 0.317939 0.57125 0.54986
79 1 0.31558 0.711182 0.535725
1 1 0.312366 0.608405 0.582624
143 1 0.258072 0.51764 0.572481
1028 3 0.378754 0.625517 0.586622
534 2 0.280999 0.575605 0.567181
268 1 0.456091 0.509197 0.53166
952 2 0.426234 0.502185 0.58375
474 1 0.157766 0.992197 0.513814
862 1 0.00229827 0.975254 0.539198
361 5 0.0166981 0.610579 0.544092
490 5 0.091375 0.845478 0.529826
1050 1 0.085844 0.915042 0.508089
1180 5 0.367414 0.742378 0.588926
576 2 0.11287 0.968691 0.499836
246 1 0.203178 0.87168 0.519171
702 1 0.0352543 0.772114 0.540615
1116 1 0.223527 0.955019 0.591254
1141 1 0.226867 0.990893 0.542015
262 1 0.17169 0.771361 0.586749
727 3 0.0836409 0.87862 0.565502
860 2 0.056567 0.986402 0.54932
451 5 0.168502 0.971653 0.565948
405 1 0.0930297 0.906063 0.585389
765 1 0.121124 0.821285 0.561945
399 5 0.184083 0.896117 0.548841
376 1 0.0915943 0.93069 0.55035
482 1 0.0191702 0.853796 0.562013
567 2 0.140403 0.761799 0.566983
221 2 0.290812 0.829365 0.579513
310 5 0.297357 0.916795 0.549832
434 1 0.245957 0.799526 0.499753
234 3 0.362731 0.99264 0.590621
592 1 0.374936 0.842879 0.536333
283 1 0.396935 0.748802 0.516196
1023 1 0.288995 0.875191 0.594457
841 5 0.240046 0.794528 0.538891
816 1 0.247279 0.847235 0.564967
1115 1 0.282416 0.770633 0.588114
1113 1 0.481877 0.810892 0.52316
1011 2 0.248086 0.863572 0.504238
1184 1 0.307956 0.873832 0.511983
495 1 0.388675 0.938489 0.524863
1093 2 0.36765 0.878974 0.518207
41 1 0.25942 0.967746 0.507902
511 1 0.406636 0.848596 0.504287
83 2 0.438022 0.793397 0.508039
368 2 0.397709 0.822862 0.555183
414 1 0.452937 0.974424 0.554585
719 3 0.451352 0.964103 0.531205
1095 1 0.449552 0.774652 0.591175
315 1 0.426863 0.76403 0.554757
484 1 0.437466 0.871645 0.562038
450 2 0.434569 0.933179 0.569865
360 1 0.459118 0.928759 0.589757
731 1 0.348275 0.827189 0.569233
905 1 0.370384 0.94482 0.574084
598 1 0.443302 0.648608 0.401635
173 1 0.00645566 0.518035 0.445923
342 5 0.15651 0.516515 0.53117
545 2 0.218966 0.999465 0.520883
257 3 0.00046846 0.99507 0.490118
913 5 0.098953 0.648767 0.665596
68 1 0.218318 0.561581 0.631477
852 2 0.241212 0.699738 0.664985
329 1 0.2251 0.649309 0.652201
950 2 0.184597 0.601393 0.645432
1166 1 0.208612 0.6994 0.683674
627 1 0.0402787 0.575703 0.662177
819 1 0.0722918 0.662021 0.605646
609 2 0.0833667 0.613534 0.620195
704 1 0.161358 0.572452 0.662504
891 1 0.10001 0.557077 0.609429
455 1 0.134698 0.623435 0.633012
955 1 0.0252903 0.600455 0.6293
393 5 0.0940599 0.538524 0.686448
521 1 0.190124 0.859717 0.603598
1046 1 0.00179847 0.92096 0.601357
459 1 0.0357318 0.722391 0.669391
440 5 0.233436 0.70602 0.60031
54 1 0.404102 0.506987 0.638369
483 1 0.469078 0.569981 0.622376
1008 1 0.413046 0.739195 0.65427
1191 1 0.476283 0.747953 0.623836
1074 2 0.428335 0.570469 0.638984
106 1 0.463176 0.57652 0.656754
119 1 0.377462 0.660271 0.606982
125 1 0.30528 0.704258 0.667726
1125 2 0.250705 0.578556 0.613272
186 2 0.347255 0.738927 0.655121
923 1 0.284489 0.630788 0.618013
733 1 0.289393 0.528088 0.608745
927 1 0.333967 0.710963 0.635447
363 1 0.379091 0.612171 0.636685
129 2 0.344911 0.654203 0.625059
17 2 0.492458 0.74441 0.603063
710 1 0.21962 0.75297 0.654092
1020 1 0.0363105 0.745261 0.634777
937 3 0.220325 0.911333 0.644007
442 2 0.236259 0.902332 0.60275
1167 2 0.220364 0.796092 0.638152
588 1 0.192124 0.771485 0.620865
653 1 0.247058 0.92414 0.62345
80 1 0.181228 0.84734 0.642791
712 1 0.100116 0.798728 0.611204
1067 2 0.16091 0.803868 0.605221
502 2 0.00940013 0.86472 0.646069
802 2 0.0417206 0.785738 0.617626
244 3 0.126074 0.893806 0.64049
324 1 0.163933 0.948344 0.647098
1124 2 0.066606 0.93379 0.603131
1003 1 0.0699331 0.87549 0.65083
60 1 0.0976513 0.911266 0.620788
345 1 0.0113167 0.838816 0.625563
104 5 0.122272 0.762876 0.686006
1111 1 0.0749007 0.999086 0.602301
838 1 0.478233 0.964989 0.62358
437 5 0.279131 0.667006 0.703871
908 1 0.351413 0.909373 0.640079
1065 2 0.00112737 0.748139 0.652927
132 1 0.336962 0.800512 0.658924
867 5 0.398122 0.853464 0.602414
491 2 0.446694 0.779742 0.640675
1123 1 0.353609 0.976301 0.61326
205 5 0.356117 0.914808 0.672641
177 3 0.338741 0.839499 0.638699
217 1 0.275846 0.823291 0.631839
960 1 0.256111 0.910776 0.662709
1110 2 0.351348 0.971195 0.634785
236 1 0.00672125 0.758083 0.60145
1106 1 0.399103 0.814922 0.630837
338 1 0.487945 0.818355 0.650645
1014 1 0.404372 0.998462 0.643295
285 1 0.697665 0.15324 0.394201
725 1 0.636404 0.0644586 0.368439
464 1 0.69325 0.131167 0.347124
1178 2 0.720022 0.198489 0.381996
1092 2 0.688777 0.0700301 0.355744
810 1 0.743521 0.0638797 0.367523
1016 5 0.591721 0.15173 0.370422
321 1 0.537002 0.0283658 0.369838
934 1 0.523166 0.225958 0.369113
1148 2 0.59454 0.0271221 0.38029
947 2 0.880786 0.277578 0.364502
328 2 0.534495 0.213628 0.347163
688 1 0.703504 0.241461 0.341884
299 1 0.924264 0.32485 0.361347
984 1 0.664542 0.219627 0.37144
121 5 0.577393 0.0670283 0.338168
267 1 0.595639 0.237176 0.345729
903 1 0.686806 0.02521 0.339769
385 5 0.771343 0.0106439 0.316935
757 1 0.533021 0.149505 0.344724
585 3 0.741882 0.183212 0.345158
16 2 0.65232 0.256734 0.354299
1200 1 0.840173 0.399752 0.370696
1096 1 0.736203 0.248589 0.394542
686 2 0.985123 0.469162 0.387172
1026 1 0.763523 0.189179 0.366765
1073 2 0.805552 0.0723155 0.374206
818 2 0.841741 0.118635 0.337003
330 1 0.89879 0.148812 0.333038
540 5 0.880363 0.163206 0.379515
436 1 0.932597 0.433236 0.347056
288 2 0.937972 0.19407 0.340965
1068 1 0.792759 0.155639 0.331973
990 1 0.838851 0.103665 0.358276
107 1 0.843353 0.059751 0.326948
389 1 0.978653 0.232899 0.329508
1163 1 0.816174 0.104338 0.392948
159 2 0.998338 0.00144196 0.394883
261 1 0.900222 0.224241 0.353884
835 1 0.97772 0.0173361 0.345755
1146 5 0.994513 0.216349 0.38591
614 1 0.987871 0.179117 0.35363
1032 1 0.832706 0.0146307 0.377635
799 2 0.753163 0.312034 0.398814
807 5 0.536694 0.470581 0.323609
690 3 0.504242 0.392019 0.358704
555 1 0.759998 0.391098 0.348161
497 5 0.671836 0.403273 0.336693
428 1 0.626998 0.496432 0.332809
940 1 0.584464 0.337507 0.386351
729 1 0.647344 0.31982 0.358392
396 1 0.752624 0.455358 0.381577
254 2 0.688705 0.46878 0.380712
77 1 0.654946 0.412437 0.377881
774 1 0.571002 0.392842 0.356872
1192 2 0.616646 0.365066 0.369526
676 1 0.7583 0.344324 0.380174
341 1 0.947952 0.414144 0.384084
1045 1 0.821014 0.301557 0.358352
477 5 0.931659 0.361927 0.321585
732 2 0.815711 0.444924 0.385247
692 2 0.790924 0.357932 0.362254
745 3 0.913278 0.396697 0.364936
1010 1 0.879264 0.262984 0.384924
21 5 0.877078 0.00681683 0.351129
649 1 0.670224 0.495405 0.399764
822 5 0.605662 0.253499 0.397132
840 1 0.589428 0.0551437 0.399537
957 1 0.940251 0.0284458 0.399642
1019 5 0.517864 0.129726 0.468252
1030 2 0.536401 0.249136 0.486673
146 1 0.573552 0.199762 0.480527
691 1 0.627859 0.117997 0.490876
613 2 0.633675 0.173252 0.478083
179 1 0.684985 0.20149 0.487042
469 5 0.745431 0.0373778 0.471326
783 1 0.660139 0.0458816 0.45613
2 1 0.611696 0.0997265 0.431176
454 1 0.644894 0.150608 0.458739
401 5 0.736128 0.194512 0.456257
128 5 0.587481 0.0083855 0.469418
489 1 0.717776 0.10879 0.435879
864 2 0.660691 0.101696 0.445932
795 5 0.66543 0.182886 0.419872
3 2 0.572759 0.103489 0.413831
30 1 0.511833 0.0938965 0.419516
115 1 0.510077 0.244609 0.406558
770 1 0.506667 0.00772075 0.45445
1133 1 0.554315 0.24414 0.438916
687 1 0.514995 0.0705524 0.491479
1175 1 0.57908 0.160063 0.404587
478 1 0.787427 0.123635 0.471952
682 5 0.950561 0.116355 0.491503
253 5 0.878073 0.047201 0.471841
622 2 0.838387 0.163837 0.473237
493 5 0.898225 0.110254 0.407859
116 1 0.863751 0.159049 0.493158
199 5 0.84224 0.0108053 0.41114
683 1 0.984411 0.232527 0.459328
782 1 0.819798 0.225968 0.469878
582 5 0.926646 0.205619 0.435029
1179 5 0.97762 0.113876 0.452399
522 5 0.777091 0.15909 0.417192
214 1 0.864321 0.204811 0.413672
829 1 0.88437 0.144152 0.459776
95 5 0.815439 0.0993845 0.439857
394 1 0.9817 0.0357128 0.473289
746 1 0.99296 0.16444 0.412429
1077 3 0.506495 0.493043 0.421909
218 5 0.594149 0.365424 0.470586
1052 5 0.692493 0.299081 0.481131
1168 5 0.723772 0.42922 0.491858
546 2 0.600772 0.286538 0.44311
721 5 0.613516 0.387811 0.413573
593 3 0.658216 0.48009 0.45443
433 1 0.718715 0.330483 0.448787
312 1 0.646782 0.276894 0.428063
1004 2 0.750519 0.384037 0.455896
44 2 0.7088 0.297469 0.430657
57 1 0.629501 0.27399 0.46221
37 1 0.716277 0.33698 0.413859
669 1 0.701889 0.425701 0.46025
767 1 0.5976 0.462635 0.463895
586 1 0.58198 0.34547 0.44011
536 1 0.52416 0.454956 0.439533
863 2 0.534286 0.466141 0.460125
976 5 0.506474 0.373926 0.413116
466 1 0.519787 0.300975 0.47512
693 5 0.766938 0.236491 0.49839
672 1 0.748693 0.246728 0.430889
591 5 0.964086 0.375454 0.412794
1091 1 0.790275 0.37075 0.472297
761 3 0.854272 0.378628 0.482217
476 5 0.902623 0.26014 0.480345
357 2 0.899742 0.491255 0.491856
263 1 0.906832 0.349975 0.469182
1138 1 0.955 0.455862 0.494104
735 1 0.85773 0.447233 0.483519
636 1 0.883049 0.44255 0.431511
674 1 0.819468 0.421053 0.404921
64 2 0.820494 0.439468 0.425295
131 1 0.913952 0.297096 0.416749
1021 5 0.838051 0.291892 0.448334
1190 5 0.930856 0.360159 0.437602
1035 5 0.937754 0.441438 0.459648
103 1 0.788948 0.40136 0.439349
1084 1 0.567294 0.498164 0.410259
1109 1 0.511539 0.155128 0.518785
190 1 0.789612 0.49674 0.428185
172 1 0.671717 0.499216 0.538118
944 1 0.63964 0.495461 0.596176
297 1 0.811895 0.303109 0.407129
467 2 0.866899 0.266206 0.406377
713 1 0.641658 0.0168668 0.501691
517 5 0.691661 0.0493445 0.409603
1044 1 0.584784 0.00423465 0.567815
250 2 0.538279 0.189496 0.597797
1121 2 0.570763 0.141298 0.528082
164 1 0.59397 0.0841307 0.522578
58 1 0.692483 0.100204 0.517986
901 2 0.641521 0.0777348 0.507424
304 1 0.60578 0.193472 0.524264
1041 1 0.563713 0.140795 0.549946
936 1 0.728955 0.0452131 0.586448
1139 1 0.64642 0.0995123 0.567246
53 1 0.687352 0.141821 0.594726
626 2 0.608037 0.150417 0.565557
210 5 0.73919 0.0729125 0.540081
339 2 0.701785 0.0982644 0.579237
43 5 0.705954 0.190072 0.524938
369 1 0.640238 0.206559 0.56
971 1 0.69092 0.242692 0.587672
830 1 0.582623 0.167915 0.583806
350 2 0.565758 0.0286307 0.587008
1195 1 0.515697 0.0710959 0.585478
875 1 0.618896 0.045752 0.59869
736 5 0.825822 0.0521544 0.596531
200 2 0.990928 0.163336 0.543509
1154 5 0.774341 0.108902 0.502811
515 5 0.877871 0.0991135 0.522515
408 1 0.961382 0.148007 0.525145
384 5 0.911282 0.232899 0.514045
224 1 0.807861 0.0380397 0.518474
1198 1 0.817725 0.185278 0.548689
157 1 0.90582 0.0427233 0.577845
1005 1 0.836629 0.0870798 0.556889
332 1 0.969623 0.134151 0.561357
1187 2 0.875195 0.0356032 0.559661
809 2 0.987166 0.136559 0.582105
118 2 0.806345 0.140191 0.56316
147 1 0.913196 0.0220461 0.542628
570 1 0.942292 0.163925 0.594543
273 1 0.824152 0.156199 0.583693
228 1 0.743985 0.127594 0.565634
794 1 0.961049 0.00815229 0.509459
677 1 0.982208 0.225612 0.54731
801 1 0.570475 0.481788 0.548394
73 2 0.597835 0.260224 0.525502
152 1 0.632606 0.358406 0.594266
895 1 0.535959 0.398651 0.503297
427 2 0.595902 0.405363 0.511308
509 1 0.589988 0.386406 0.53192
878 1 0.569554 0.26943 0.504958
924 1 0.612025 0.468324 0.51125
235 1 0.655781 0.290662 0.525147
279 1 0.639936 0.367888 0.500983
948 3 0.690381 0.344441 0.516121
431 2 0.681217 0.465429 0.582305
379 2 0.720061 0.465789 0.528723
720 1 0.73496 0.24958 0.555741
890 1 0.726504 0.4283 0.591876
831 2 0.62515 0.366215 0.572869
98 1 0.736152 0.338745 0.575058
203 2 0.678287 0.258934 0.566569
716 1 0.703336 0.404075 0.526505
391 1 0.651514 0.424093 0.56888
351 1 0.640145 0.310767 0.56381
1119 3 0.55379 0.415474 0.549865
1056 1 0.549751 0.270191 0.539157
850 1 0.562019 0.375918 0.568129
1081 5 0.5484 0.270405 0.570256
612 1 0.75388 0.331854 0.508369
786 2 0.98937 0.468308 0.591399
530 3 0.940175 0.486993 0.551885
737 2 0.767305 0.386179 0.583884
430 5 0.793081 0.273375 0.59128
266 1 0.975151 0.475126 0.531335
189 1 0.771991 0.465184 0.54142
529 1 0.824569 0.383051 0.533789
869 3 0.990696 0.293541 0.543941
884 1 0.813623 0.280366 0.529446
843 5 0.922451 0.397543 0.521217
488 1 0.987439 0.305813 0.521176
825 2 0.811268 0.335099 0.518561
133 1 0.855589 0.343388 0.503133
18 1 0.805267 0.41163 0.56844
982 3 0.801644 0.253843 0.550472
1102 1 0.876918 0.459389 0.550299
769 1 0.848801 0.282887 0.567241
291 1 0.897823 0.365853 0.585784
1158 1 0.936986 0.266227 0.585813
623 1 0.977338 0.458627 0.570213
1100 2 0.820785 0.430496 0.548426
946 1 0.940795 0.329063 0.555732
742 2 0.905057 0.311158 0.573013
899 1 0.734281 0.498074 0.510941
56 1 0.808609 0.360317 0.598576
726 1 0.826008 0.000881376 0.446691
664 1 0.646633 0.499601 0.433266
300 2 0.56906 0.194667 0.64938
1043 1 0.631009 0.203135 0.652765
788 1 0.734629 0.17571 0.649958
354 2 0.700548 0.200292 0.60412
441 2 0.638023 0.0233334 0.617498
748 1 0.675509 0.208828 0.623045
46 5 0.877507 0.0686013 0.680509
1152 1 0.674498 0.062895 0.629035
122 5 0.744339 0.0874017 0.659843
656 2 0.690891 0.218175 0.644398
539 1 0.535076 0.142037 0.648058
1025 1 0.528357 0.15273 0.615276
240 1 0.550379 0.246817 0.606567
601 1 0.541312 0.247863 0.641034
448 5 0.75607 0.10196 0.627858
630 3 0.81413 0.00478276 0.64131
932 1 0.832756 0.0628066 0.651528
194 5 0.954715 0.0909699 0.655188
33 5 0.873197 0.143958 0.647041
383 1 0.94633 0.204886 0.652764
93 1 0.967027 0.234676 0.620206
666 1 0.868198 0.223008 0.60792
975 5 0.923273 0.0718526 0.610451
335 1 0.83714 0.124119 0.617118
292 2 0.827452 0.173161 0.604572
1151 1 0.766062 0.196609 0.607647
1140 2 0.988126 0.198316 0.636511
507 2 0.932145 0.223691 0.601998
162 1 0.991481 0.137031 0.63052
498 1 0.975991 0.418438 0.604173
355 1 0.709916 0.387933 0.647598
223 1 0.639258 0.415414 0.62489
933 2 0.64363 0.354857 0.614986
642 2 0.689649 0.441078 0.637504
527 1 0.705515 0.33664 0.620261
457 2 0.733557 0.332809 0.639978
771 1 0.707385 0.279787 0.64793
1130 2 0.574143 0.433826 0.628334
641 1 0.552115 0.406739 0.645985
463 2 0.540463 0.287062 0.623179
1009 1 0.595245 0.320131 0.624556
193 1 0.540136 0.408732 0.612251
471 1 0.669509 0.491855 0.648409
675 1 0.741781 0.45878 0.626113
615 1 0.95595 0.00763834 0.632633
337 5 0.979432 0.403051 0.636709
1182 5 0.927106 0.271017 0.673177
1080 2 0.866172 0.390073 0.603004
972 1 0.841303 0.448529 0.608663
1040 1 0.897295 0.357093 0.65612
963 1 0.827457 0.429726 0.640847