ITEM: TIMESTEP
300
ITEM: NUMBER OF ATOMS
1200
ITEM: BOX BOUNDS pp pp pp
-7.6266250050336382e-02 2.5098596345622489e+01
-7.6266250050336382e-02 2.5098596345622489e+01
-2.5251128845723162e+01 5.0273458941295317e+01
ITEM: ATOMS id type xs ys zs
904 5 0.00985318 0.351422 0.378552
1149 3 0.20822 0.0886894 0.347952
419 1 0.230412 0.120404 0.368687
108 1 0.218623 0.0192566 0.350299
456 1 0.460411 0.316589 0.350513
96 1 0.0436479 0.0132949 0.399724
1173 1 0.0649673 0.297525 0.399357
1076 1 0.129992 0.0909709 0.347384
1193 1 0.0546697 0.0750478 0.372103
580 5 0.139896 0.162553 0.371611
269 2 0.0130872 0.219905 0.358236
638 5 0.118616 0.18556 0.310848
390 2 0.0733974 0.0684461 0.392752
645 3 0.087336 0.0448749 0.353991
967 1 0.0615921 0.202292 0.37034
690 3 0.483325 0.384847 0.355791
26 5 0.240242 0.383271 0.322489
542 1 0.137179 0.0591904 0.393787
935 2 0.43158 0.26227 0.339293
787 1 0.400163 0.21087 0.346406
917 2 0.451149 0.497793 0.388545
314 1 0.453014 0.181555 0.384884
590 2 0.484976 0.236776 0.383549
577 2 0.0969985 0.474867 0.353029
460 1 0.328784 0.471726 0.348323
559 1 0.431962 0.0133963 0.357914
1053 1 0.287518 0.3568 0.346112
973 5 0.318492 0.12666 0.358251
290 1 0.346272 0.187007 0.391004
468 2 0.398445 0.149842 0.390007
1174 1 0.252569 0.116077 0.332134
1037 1 0.392713 0.0983958 0.377239
432 5 0.218935 0.19461 0.386128
196 2 0.387944 0.0352558 0.372214
82 1 0.199934 0.301406 0.343842
346 2 0.24506 0.318404 0.357735
477 5 0.0203789 0.363141 0.336092
1059 1 0.0176831 0.442089 0.398602
40 5 0.12054 0.298916 0.360995
804 1 0.232723 0.0163275 0.388386
813 1 0.0541029 0.474283 0.366196
403 5 0.142541 0.375786 0.394283
465 1 0.326608 0.0212136 0.366892
1071 1 0.217927 0.343104 0.375949
834 1 0.16438 0.470482 0.392237
418 1 0.0353212 0.279265 0.350609
915 1 0.122509 0.425507 0.342485
703 2 0.389574 0.471484 0.353935
241 1 0.438194 0.281937 0.381879
929 1 0.485611 0.235196 0.332429
373 1 0.398023 0.474681 0.377324
1171 1 0.434503 0.4281 0.347144
409 1 0.462644 0.388678 0.378128
1159 2 0.4217 0.342656 0.383212
412 2 0.34136 0.323827 0.351281
628 1 0.376901 0.298127 0.334797
660 1 0.296952 0.278676 0.361384
151 1 0.368418 0.34769 0.369258
893 5 0.321187 0.28218 0.392283
565 5 0.273005 0.43506 0.383821
907 1 0.402987 0.00308529 0.390707
635 5 0.34291 0.178838 0.316156
793 3 0.258393 0.00143093 0.366862
296 1 0.0584946 0.00202079 0.499585
397 2 0.0240234 0.238756 0.468227
885 5 0.173656 0.195509 0.477474
1185 5 0.0645661 0.098152 0.487164
88 1 0.00608821 0.181935 0.4763
28 1 0.210125 0.103846 0.488696
62 5 0.242307 0.0170801 0.44306
953 5 0.0749864 0.0102511 0.431864
20 1 0.154018 0.0030458 0.454322
1060 5 0.158802 0.208107 0.444004
137 5 0.175685 0.093478 0.453644
377 2 0.0603303 0.15277 0.423723
537 1 0.208742 0.0751575 0.419352
15 5 0.0644254 0.0469908 0.459659
353 1 0.0930561 0.205778 0.417804
1017 1 0.0844902 0.229432 0.461328
1024 1 0.0889985 0.113607 0.438418
472 1 0.265998 0.0227858 0.474381
75 1 0.316946 0.0970214 0.492295
375 2 0.267832 0.0850691 0.478624
206 1 0.263491 0.228607 0.491723
407 1 0.483601 0.224095 0.495563
985 5 0.353833 0.497287 0.410179
247 5 0.417451 0.116658 0.474302
378 2 0.458955 0.0295213 0.444538
516 1 0.444137 0.0918664 0.443334
406 1 0.46978 0.191316 0.431142
91 1 0.409521 0.130001 0.41127
557 2 0.497462 0.247058 0.424885
920 2 0.457696 0.130106 0.426745
211 5 0.319672 0.0122092 0.408306
858 1 0.282939 0.174299 0.430033
443 2 0.314106 0.133855 0.44319
14 1 0.325807 0.0759249 0.435005
322 5 0.369488 0.22968 0.424701
968 1 0.272135 0.124311 0.461014
877 1 0.430474 0.00319657 0.489839
72 1 0.362704 0.168274 0.452226
32 5 0.300478 0.243647 0.462253
364 1 0.0153262 0.374068 0.495851
779 5 0.146353 0.441562 0.468148
871 3 0.0129438 0.441296 0.491554
242 1 0.0247029 0.278163 0.485858
754 1 0.0298117 0.471223 0.471899
78 5 0.131622 0.292035 0.478704
34 1 0.244984 0.422972 0.479463
1099 1 0.392951 0.382094 0.567039
663 1 0.106045 0.363327 0.458017
188 5 0.253323 0.325192 0.40541
1079 5 0.238755 0.436525 0.421734
991 5 0.329916 0.133759 0.596133
435 1 0.19632 0.30237 0.453841
392 1 0.00820762 0.431591 0.440462
591 5 0.00241432 0.365634 0.4176
827 1 0.113738 0.304506 0.429554
689 2 0.147446 0.337179 0.444737
722 1 0.0978901 0.489234 0.445935
1128 2 0.0341562 0.482225 0.450404
249 2 0.108737 0.26597 0.411767
265 1 0.17797 0.378326 0.432146
741 5 0.101376 0.43645 0.418112
687 1 0.497821 0.085238 0.492104
533 1 0.169719 0.262821 0.404694
1078 1 0.368659 0.413964 0.469623
564 2 0.375321 0.363065 0.482598
139 5 0.24881 0.326056 0.48286
547 1 0.321361 0.474228 0.499366
561 1 0.36171 0.307422 0.473833
256 2 0.266891 0.478241 0.487575
447 2 0.485411 0.410215 0.489098
4 1 0.436171 0.368305 0.491006
204 1 0.458256 0.46728 0.496043
851 1 0.409081 0.493676 0.450223
608 1 0.465637 0.4686 0.406602
812 2 0.39312 0.341674 0.583475
1070 2 0.191417 0.0353518 0.403874
696 5 0.417557 0.242186 0.460983
996 1 0.450808 0.288925 0.428834
102 5 0.498664 0.366293 0.442862
382 5 0.244889 0.260282 0.429654
1039 5 0.266779 0.364426 0.448844
109 1 0.330894 0.318508 0.425141
694 1 0.311422 0.455985 0.445355
494 2 0.366589 0.370216 0.419685
308 1 0.39625 0.397925 0.435709
633 1 0.322006 0.410631 0.411176
410 2 0.374784 0.440663 0.450115
550 1 0.132115 0.104175 0.514357
574 5 0.0453084 0.178858 0.508443
1155 1 0.130269 0.221521 0.503824
520 2 0.195459 0.108296 0.510231
811 1 0.226133 0.0587816 0.520333
643 1 0.220519 0.162699 0.517128
785 1 0.107562 0.0691927 0.578443
857 1 0.208212 0.0563023 0.576104
69 2 0.213243 0.199806 0.594255
114 2 0.242143 0.0209871 0.589852
760 1 0.0565257 0.115827 0.40578
1089 1 0.0140531 0.0811881 0.588899
1006 1 0.0589095 0.153645 0.540206
738 3 0.0808495 0.223172 0.58803
647 2 0.162457 0.099676 0.57172
192 1 0.158332 0.116406 0.550467
632 1 0.0341215 0.182037 0.577768
897 2 0.0554612 0.034436 0.583305
826 3 0.105307 0.104975 0.535057
680 1 0.0792473 0.0419289 0.541241
548 1 0.175021 0.15048 0.584774
803 5 0.200975 0.193533 0.546945
219 1 0.128594 0.244721 0.573136
23 1 0.358145 0.0760319 0.524702
298 2 0.264489 0.207176 0.512052
101 1 0.319699 0.174894 0.514798
854 2 0.35109 0.119828 0.509437
1118 1 0.287775 0.433251 0.591779
470 2 0.459842 0.184735 0.511064
413 1 0.432774 0.22818 0.524725
684 1 0.476053 0.0242947 0.520034
833 1 0.410351 0.146038 0.50479
930 2 0.485389 0.026972 0.498474
81 1 0.419455 0.0264173 0.583061
961 2 0.451063 0.0826114 0.584212
900 3 0.422844 0.23086 0.589313
945 5 0.491558 0.199321 0.556331
42 1 0.487335 0.209568 0.586313
1057 1 0.314856 0.261065 0.554186
1161 1 0.456325 0.113099 0.565647
1066 5 0.403466 0.141953 0.541044
596 1 0.308048 0.156472 0.555239
1199 2 0.310965 0.209092 0.566984
10 1 0.252805 0.213527 0.577813
220 1 0.30504 0.0224853 0.583816
646 5 0.282695 0.0645487 0.546706
837 5 0.399106 0.0525841 0.550873
438 1 0.360056 0.206592 0.58081
1001 2 0.139739 0.276447 0.515297
92 1 0.0864682 0.311594 0.512498
916 1 0.0515821 0.47075 0.508117
1194 5 0.304278 0.429731 0.557067
342 5 0.141763 0.494724 0.523004
605 1 0.189556 0.311831 0.507398
424 2 0.0247578 0.317305 0.503661
798 5 0.198305 0.406432 0.508879
558 5 0.243772 0.355737 0.597982
317 3 0.230763 0.469518 0.583869
611 1 0.23609 0.336517 0.549875
215 1 0.199178 0.419695 0.570541
367 5 0.0658553 0.392181 0.530908
105 2 0.282772 0.301189 0.540143
366 1 0.0497628 0.282999 0.551664
130 5 0.0145642 0.355269 0.575442
759 1 0.137097 0.339691 0.561139
231 2 0.113263 0.281285 0.555673
153 1 0.142938 0.263535 0.537151
786 2 0.0121116 0.465221 0.594429
518 1 0.0603252 0.284855 0.595102
127 1 0.159347 0.411958 0.538507
352 1 0.0776536 0.473631 0.591666
174 2 0.186121 0.377104 0.554309
439 5 0.112339 0.468921 0.560714
100 2 0.332994 0.399618 0.519521
922 5 0.359688 0.263143 0.503308
977 1 0.260548 0.255914 0.526642
535 1 0.276822 0.424625 0.527005
966 1 0.38562 0.425165 0.529298
1013 1 0.340539 0.370685 0.500318
372 1 0.336596 0.323033 0.590395
227 1 0.427806 0.288428 0.577379
746 1 0.000204515 0.172057 0.426551
652 5 0.40387 0.295328 0.545999
395 5 0.337843 0.00598689 0.507275
784 2 0.432134 0.45296 0.541778
861 1 0.478293 0.484309 0.585628
706 1 0.412843 0.48971 0.557941
303 1 0.483772 0.419008 0.548425
340 1 0.373677 0.494278 0.590673
1105 1 0.327499 0.338579 0.530437
1054 5 0.00323724 0.360153 0.462835
309 5 0.282184 0.122471 0.4049
943 5 0.478476 0.314643 0.519617
1117 5 0.13059 0.347689 0.595402
479 1 0.466801 0.00879017 0.424255
998 1 0.401182 0.354126 0.402913
415 1 0.422632 0.11871 0.599668
1000 1 0.34191 0.412319 0.653573
123 1 0.235748 0.211536 0.639144
610 1 0.251727 0.168054 0.609472
1094 2 0.244102 0.0469388 0.632616
162 1 0.0280677 0.121593 0.627899
50 5 0.233046 0.483604 0.662392
142 1 0.109172 0.0880542 0.664358
71 2 0.388245 0.426944 0.639174
1085 2 0.122768 0.494913 0.606137
711 5 0.102148 0.0984395 0.609866
700 1 0.138838 0.147028 0.635357
359 1 0.183558 0.0434605 0.639887
1126 1 0.108272 0.195055 0.607549
47 2 0.114747 0.202902 0.629699
94 1 0.0596449 0.209979 0.639326
230 2 0.141822 0.0912769 0.645378
1072 1 0.438509 0.158203 0.632558
753 1 0.481576 0.0627748 0.632144
999 1 0.400948 0.244177 0.648463
31 5 0.310575 0.256022 0.60859
931 1 0.291476 0.00396497 0.635768
209 1 0.417448 0.240458 0.613043
1014 1 0.395731 0.00245652 0.639179
205 5 0.346531 0.0475517 0.672397
255 1 0.335551 0.185754 0.628816
986 1 0.237473 0.0451359 0.609412
202 5 0.327705 0.305261 0.654902
365 1 0.265926 0.106363 0.637115
111 2 0.398758 0.208422 0.631012
651 2 0.275165 0.167826 0.630522
458 1 0.14323 0.25853 0.635321
51 1 0.16026 0.430099 0.649783
343 1 0.260325 0.306553 0.629619
1114 2 0.197734 0.286762 0.625536
1145 1 0.0701156 0.376646 0.641301
1183 5 0.072691 0.292681 0.665226
870 1 0.167082 0.351517 0.626346
136 5 0.0243166 0.316823 0.622257
956 1 0.35526 0.440991 0.620787
1042 2 0.490762 0.125527 0.628694
38 3 0.499852 0.489585 0.606819
631 1 0.114006 0.44486 0.621222
1069 2 0.127351 0.397225 0.634719
1150 1 0.428354 0.377736 0.635595
639 5 0.249166 0.417688 0.637606
525 2 0.464676 0.371814 0.617815
337 5 0.0433594 0.481976 0.633751
54 1 0.431059 0.479691 0.645637
607 2 0.327527 0.471953 0.603764
551 1 0.198693 0.25247 0.606897
1103 2 0.460952 0.00161855 0.638025
1140 2 0.00364282 0.177406 0.635069
1131 5 0.0566544 0.00452898 0.681385
344 1 0.43146 0.370085 0.600252
556 1 0.185519 0.488486 0.600312
370 1 0.130088 0.522253 0.353025
914 1 0.493123 0.937022 0.392839
388 1 0.244979 0.719072 0.389722
1136 1 0.233579 0.718931 0.345189
232 1 0.013638 0.61109 0.357892
429 5 0.270824 0.624777 0.369722
739 5 0.170397 0.656997 0.395783
1101 1 0.188466 0.568584 0.3844
763 1 0.128452 0.737329 0.347062
404 1 0.327622 0.784911 0.373321
708 1 0.165751 0.642673 0.358307
734 5 0.410453 0.758851 0.383896
85 1 0.0798483 0.58929 0.381472
839 2 0.178844 0.6963 0.351387
212 2 0.0109348 0.592153 0.379034
1144 3 0.142716 0.581168 0.36845
422 5 0.0492758 0.707309 0.369558
919 1 0.428896 0.557808 0.392921
598 1 0.399374 0.655529 0.387046
1033 1 0.397601 0.631933 0.339631
697 5 0.364072 0.925891 0.372435
1064 1 0.494757 0.596483 0.356036
918 1 0.417253 0.532352 0.350715
758 1 0.445806 0.866008 0.373813
715 2 0.43315 0.592891 0.350268
52 5 0.372132 0.861979 0.393515
176 5 0.377515 0.720763 0.360579
579 1 0.347098 0.583194 0.373081
124 2 0.37796 0.596331 0.390896
668 5 0.275647 0.518315 0.367317
807 5 0.319338 0.588953 0.330291
1122 1 0.252206 0.931929 0.365597
1088 2 0.211206 0.887521 0.368602
286 1 0.22555 0.824384 0.36743
797 1 0.197173 0.892938 0.390798
1135 1 0.0968579 0.733382 0.398501
89 1 0.157043 0.897002 0.358432
921 5 0.00921844 0.966233 0.323977
84 3 0.263108 0.779082 0.378194
762 1 0.0898877 0.980119 0.347738
416 1 0.0510572 0.891195 0.359951
6 5 0.0796104 0.803612 0.367356
519 2 0.102258 0.93051 0.360742
500 5 0.465151 0.888188 0.335313
750 5 0.284271 0.756992 0.322119
747 1 0.116374 0.947154 0.380603
624 3 0.499641 0.997853 0.35556
1007 1 0.188481 0.607196 0.48107
12 5 0.07573 0.754395 0.482062
1157 1 0.103616 0.663424 0.474964
844 2 0.241715 0.741797 0.488805
531 1 0.219552 0.738368 0.426528
718 1 0.248518 0.640877 0.425235
620 2 0.201628 0.678067 0.432468
135 1 0.19265 0.671814 0.453509
398 5 0.00835432 0.633784 0.455439
1058 1 0.143277 0.673568 0.422069
670 1 0.137008 0.588683 0.452013
444 1 0.156494 0.542577 0.417607
445 3 0.149827 0.531746 0.440355
994 5 0.0595297 0.596601 0.420923
637 1 0.170109 0.977588 0.411306
446 1 0.0377981 0.684296 0.422835
1137 2 0.0939204 0.714003 0.419206
1169 2 0.15408 0.635594 0.465612
1083 1 0.331441 0.636388 0.476847
213 5 0.37848 0.517046 0.482029
1002 1 0.280801 0.516003 0.470913
1018 2 0.306177 0.641708 0.496605
349 1 0.262076 0.690169 0.498618
1197 2 0.457602 0.74084 0.467152
749 1 0.407148 0.700433 0.467074
554 5 0.443669 0.659751 0.497159
238 1 0.479107 0.55095 0.428674
501 5 0.441251 0.639854 0.420924
499 1 0.43107 0.724381 0.429229
528 1 0.413461 0.597724 0.459091
1049 3 0.452665 0.546368 0.450993
1031 1 0.342837 0.651613 0.441442
789 1 0.299252 0.558323 0.439768
562 1 0.336348 0.735895 0.413166
575 1 0.252328 0.520349 0.40594
679 1 0.298654 0.913053 0.402631
847 1 0.341423 0.596842 0.409093
911 2 0.308818 0.61239 0.427789
740 2 0.273219 0.50723 0.449901
1038 2 0.373444 0.648809 0.460266
426 1 0.0584809 0.845487 0.474472
1087 1 0.12972 0.947466 0.482814
11 1 0.176988 0.743419 0.48704
167 5 0.151596 0.854759 0.486116
70 2 0.00108715 0.869118 0.480298
374 1 0.246498 0.891871 0.483791
853 5 0.154925 0.800088 0.403433
705 2 0.227827 0.887635 0.44609
183 2 0.247422 0.878239 0.404366
603 1 0.225845 0.884647 0.424537
475 5 0.0154488 0.89167 0.433454
823 5 0.162808 0.787605 0.459321
180 5 0.0907209 0.84921 0.439963
35 1 0.105481 0.762405 0.433372
594 1 0.167575 0.896768 0.453203
988 2 0.131463 0.945704 0.461274
993 5 0.0161288 0.828684 0.403987
892 1 0.0705153 0.944075 0.454246
997 5 0.025311 0.756561 0.449572
334 1 0.104959 0.887422 0.410406
941 1 0.345909 0.950602 0.478378
764 1 0.343334 0.820061 0.474942
881 1 0.269746 0.747784 0.46967
1015 3 0.274314 0.953702 0.476558
434 1 0.259642 0.798045 0.497851
294 1 0.440233 0.906001 0.474028
293 1 0.462239 0.760857 0.487874
952 2 0.423729 0.511323 0.578031
874 2 0.408941 0.962446 0.474438
173 1 0.00137174 0.536943 0.446729
140 1 0.401374 0.818891 0.421462
699 1 0.413076 0.920944 0.415732
958 3 0.400651 0.851826 0.466657
325 1 0.438912 0.796428 0.457779
277 1 0.483751 0.875098 0.435197
361 5 0.00837962 0.61124 0.544712
898 3 0.44775 0.973441 0.405375
356 2 0.420434 0.875575 0.430326
1034 1 0.380955 0.882491 0.446815
226 1 0.262322 0.936787 0.453666
138 1 0.339047 0.770851 0.444631
1156 3 0.268845 0.750447 0.411439
513 2 0.303193 0.795233 0.460652
980 5 0.334134 0.970002 0.436773
86 1 0.412352 0.99585 0.455314
144 2 0.378276 0.760659 0.427433
942 1 0.256883 0.833095 0.451884
1189 5 0.136111 0.667828 0.505697
549 1 0.0692405 0.669818 0.528277
1147 5 0.0656411 0.60019 0.504016
665 2 0.0246407 0.715523 0.529491
657 1 0.172424 0.58827 0.518206
1112 3 0.211057 0.572584 0.500017
618 5 0.241326 0.511362 0.531174
655 5 0.211314 0.664847 0.534935
120 1 0.228134 0.614064 0.564814
910 5 0.123395 0.60551 0.544118
182 1 0.149512 0.551522 0.572321
39 1 0.0673353 0.5266 0.537908
616 1 0.0296723 0.649768 0.577481
506 1 0.137897 0.647043 0.581549
1142 5 0.0466035 0.544918 0.568157
820 2 0.0814514 0.678144 0.585986
751 1 0.174699 0.739912 0.552591
145 1 0.0910668 0.73616 0.575931
1061 2 0.182264 0.600864 0.580259
307 2 0.370178 0.700314 0.525869
678 1 0.351538 0.657416 0.511058
568 5 0.350166 0.545992 0.51873
168 1 0.276336 0.58882 0.502505
386 1 0.260129 0.813254 0.401486
978 2 0.470887 0.520475 0.508079
283 1 0.401499 0.746828 0.514615
387 1 0.429292 0.567154 0.503874
581 1 0.420189 0.675403 0.538331
902 1 0.408509 0.68112 0.572535
181 1 0.434419 0.576504 0.578461
1170 2 0.441205 0.706831 0.556153
541 5 0.402257 0.577016 0.541299
281 1 0.314547 0.563103 0.546561
79 1 0.324778 0.72616 0.537743
1 1 0.323377 0.610045 0.578662
143 1 0.262381 0.521875 0.572944
1028 3 0.391736 0.625695 0.584489
534 2 0.283153 0.578191 0.564449
886 5 0.263639 0.717982 0.565942
490 5 0.118948 0.816317 0.520221
1050 1 0.0790544 0.901753 0.509848
474 1 0.155602 0.978548 0.515747
7 1 0.0137231 0.742575 0.510322
576 2 0.10632 0.956192 0.503048
545 2 0.218056 0.992081 0.520293
246 1 0.205186 0.867761 0.515065
702 1 0.0439324 0.765638 0.542328
841 5 0.253727 0.784512 0.535385
1116 1 0.22336 0.957733 0.591365
1141 1 0.236236 0.975266 0.539722
45 1 0.21416 0.503725 0.497267
262 1 0.170266 0.767084 0.588417
727 3 0.0868066 0.882537 0.564993
860 2 0.0479995 0.985086 0.547092
451 5 0.168623 0.972884 0.562544
405 1 0.0999029 0.918425 0.584961
765 1 0.13119 0.830522 0.563386
399 5 0.184739 0.887576 0.544288
376 1 0.0903061 0.937028 0.549559
482 1 0.0242337 0.852775 0.563066
278 2 0.00113153 0.794529 0.555797
567 2 0.145426 0.769646 0.568801
1011 2 0.256796 0.862121 0.501988
1184 1 0.309968 0.877759 0.513263
495 1 0.396519 0.936492 0.521101
1093 2 0.372904 0.876295 0.517492
41 1 0.256459 0.970326 0.504568
1113 1 0.492348 0.808799 0.51993
511 1 0.40929 0.84492 0.503823
83 2 0.443494 0.790348 0.505904
368 2 0.400802 0.825561 0.556351
414 1 0.464598 0.968919 0.552617
719 3 0.4554 0.964707 0.528455
1095 1 0.457048 0.776946 0.590091
315 1 0.427312 0.767076 0.553103
484 1 0.445752 0.869706 0.560901
450 2 0.441699 0.931141 0.567895
360 1 0.458292 0.922658 0.589041
731 1 0.357101 0.826084 0.572667
905 1 0.377231 0.940881 0.570765
1115 1 0.288802 0.768525 0.592348
310 5 0.29287 0.90377 0.545136
816 1 0.25184 0.825864 0.566356
221 2 0.296555 0.823086 0.581034
592 1 0.375986 0.844576 0.537045
1023 1 0.283636 0.873774 0.594867
234 3 0.363037 0.98782 0.586759
208 1 0.21113 0.501078 0.446093
544 1 0.217602 0.595808 0.598915
685 2 0.0221517 0.504725 0.523937
949 5 0.00182002 0.870143 0.525601
1180 5 0.376763 0.733216 0.596831
640 1 0.0297629 0.999294 0.567071
572 2 0.191013 0.523902 0.400389
815 2 0.14103 0.930853 0.400422
268 1 0.457347 0.500176 0.528641
1062 5 0.497071 0.817085 0.408402
862 1 0.000712612 0.96683 0.534008
1111 1 0.0682718 0.998418 0.599811
913 5 0.0153266 0.711434 0.671376
68 1 0.21095 0.558243 0.632885
852 2 0.238419 0.706362 0.662466
440 5 0.243284 0.69645 0.607369
329 1 0.222717 0.658687 0.647976
950 2 0.184821 0.605398 0.6455
710 1 0.211105 0.761653 0.658326
1123 1 0.357907 0.966116 0.608539
1166 1 0.214001 0.679557 0.67954
627 1 0.0344742 0.618009 0.670306
521 1 0.186192 0.857889 0.60536
1086 1 0.498831 0.984794 0.655042
867 5 0.386072 0.866377 0.603307
819 1 0.08089 0.66096 0.608231
1020 1 0.010878 0.755482 0.641941
609 2 0.0872248 0.605897 0.621414
704 1 0.170064 0.571249 0.664527
891 1 0.108926 0.553586 0.611558
455 1 0.137562 0.623825 0.634086
955 1 0.0352405 0.600391 0.635141
437 5 0.126097 0.620573 0.685587
483 1 0.459199 0.535051 0.618815
1008 1 0.419382 0.74661 0.65253
104 5 0.250737 0.922099 0.692439
177 3 0.337057 0.853201 0.646391
1191 1 0.464158 0.753939 0.62109
1074 2 0.431873 0.542756 0.638615
106 1 0.457886 0.585143 0.65202
282 5 0.49355 0.657891 0.63613
119 1 0.385049 0.63597 0.60745
217 1 0.267798 0.839019 0.646199
125 1 0.304699 0.716359 0.66046
1125 2 0.247569 0.56893 0.615901
186 2 0.362807 0.71533 0.653201
923 1 0.290978 0.620016 0.62118
733 1 0.285769 0.517171 0.610437
927 1 0.367014 0.670856 0.638624
363 1 0.374204 0.567759 0.633209
129 2 0.354346 0.623973 0.625238
17 2 0.495353 0.74286 0.603203
960 1 0.294753 0.953365 0.666601
937 3 0.257547 0.930788 0.649155
442 2 0.23123 0.904013 0.603267
1167 2 0.213046 0.804094 0.641858
588 1 0.211366 0.772933 0.622658
653 1 0.242242 0.923073 0.62345
1110 2 0.346662 0.972976 0.629349
80 1 0.160777 0.840041 0.641427
712 1 0.110068 0.778795 0.616351
1067 2 0.167832 0.795558 0.607288
345 1 0.0389546 0.838811 0.629772
802 2 0.0487626 0.774273 0.624384
244 3 0.139618 0.905039 0.643894
324 1 0.192467 0.932208 0.654563
1124 2 0.0716059 0.933477 0.603428
1003 1 0.0778753 0.907749 0.655707
236 1 0.0126336 0.761808 0.606912
502 2 0.0291893 0.879522 0.645683
60 1 0.102709 0.921695 0.62176
1106 1 0.375338 0.809966 0.630745
1176 5 0.434457 0.847299 0.678286
338 1 0.471936 0.836504 0.641708
838 1 0.476048 0.96152 0.621722
491 2 0.435373 0.78861 0.636356
132 1 0.352969 0.828112 0.666508
908 1 0.346716 0.91411 0.637777
1046 1 0.0088666 0.915454 0.602289
906 2 0.00264422 0.589106 0.654556
393 5 0.0186195 0.572197 0.69731
285 1 0.687904 0.179678 0.384412
725 1 0.629679 0.044189 0.367958
464 1 0.691245 0.0983196 0.344496
676 1 0.758208 0.360851 0.371912
1178 2 0.702346 0.227872 0.371115
1026 1 0.736214 0.196467 0.355903
1092 2 0.685412 0.046882 0.357016
810 1 0.729678 0.0507736 0.372693
692 2 0.792129 0.379366 0.353869
1016 5 0.592025 0.137828 0.370482
321 1 0.533097 0.0189494 0.374551
934 1 0.526619 0.23237 0.366799
1148 2 0.590955 0.0203863 0.383336
757 1 0.558834 0.170227 0.341363
555 1 0.749817 0.41317 0.344212
328 2 0.536957 0.228688 0.345323
497 5 0.729197 0.379813 0.30952
614 1 0.956543 0.208482 0.368245
1073 2 0.795482 0.0485227 0.375803
745 3 0.91139 0.417587 0.355475
818 2 0.845056 0.0923159 0.339125
1010 1 0.864671 0.284983 0.374892
330 1 0.892322 0.140186 0.347826
540 5 0.82387 0.188917 0.37081
957 1 0.936909 0.0155071 0.392862
992 5 0.946718 0.0551494 0.350581
288 2 0.927644 0.194336 0.347652
1068 1 0.791042 0.123763 0.333278
990 1 0.82352 0.0601755 0.356882
1163 1 0.812139 0.0931715 0.391216
107 1 0.883553 0.0550808 0.328413
585 3 0.732507 0.150243 0.339532
940 1 0.576452 0.347163 0.378696
688 1 0.68009 0.267451 0.331723
729 1 0.633747 0.356217 0.349905
16 2 0.638323 0.29396 0.344096
396 1 0.759726 0.463998 0.379798
254 2 0.693013 0.475188 0.376588
845 1 0.527385 0.010261 0.333575
77 1 0.643443 0.430395 0.373942
1096 1 0.743118 0.267668 0.383294
984 1 0.655905 0.265193 0.363635
121 5 0.537055 0.0941334 0.325145
389 1 0.988865 0.19185 0.337584
267 1 0.579218 0.275223 0.339755
774 1 0.546318 0.417582 0.356423
1192 2 0.598847 0.390987 0.364504
822 5 0.603126 0.252125 0.392673
799 2 0.756938 0.328042 0.390197
436 1 0.941193 0.438125 0.33522
299 1 0.923097 0.347308 0.357159
1200 1 0.844781 0.412777 0.364471
261 1 0.900684 0.250521 0.343885
947 2 0.879118 0.300521 0.354258
467 2 0.867459 0.287956 0.396754
732 2 0.82377 0.457748 0.380318
341 1 0.950558 0.447761 0.370769
493 5 0.92336 0.112728 0.393927
1045 1 0.824444 0.327589 0.345831
686 2 0.999446 0.471546 0.3811
840 1 0.594654 0.0657742 0.399719
649 1 0.675528 0.49612 0.397068
1146 5 0.994048 0.210571 0.397757
1019 5 0.5436 0.113978 0.464896
1030 2 0.533282 0.258728 0.48691
146 1 0.577923 0.212561 0.482546
691 1 0.628337 0.127231 0.49089
713 1 0.641484 0.0233792 0.495196
613 2 0.634561 0.181061 0.479713
179 1 0.682754 0.214201 0.488336
469 5 0.73028 0.040471 0.475733
783 1 0.673424 0.0639794 0.449393
2 1 0.609613 0.123331 0.428105
454 1 0.640212 0.158161 0.459296
401 5 0.716227 0.236238 0.456813
128 5 0.602834 0.0240479 0.463224
489 1 0.710969 0.148532 0.432504
864 2 0.659078 0.12366 0.442262
795 5 0.65653 0.198297 0.413479
770 1 0.510554 0.0199015 0.456847
3 2 0.570608 0.115769 0.411092
30 1 0.510391 0.108431 0.417752
693 5 0.772974 0.233135 0.499884
478 1 0.784514 0.11914 0.469583
682 5 0.945802 0.116289 0.492155
253 5 0.894713 0.0467918 0.46252
622 2 0.829968 0.164498 0.47293
394 1 0.985459 0.0361916 0.473947
116 1 0.849031 0.158854 0.493629
115 1 0.507735 0.25032 0.403585
199 5 0.852823 0.00993437 0.411343
683 1 0.980782 0.261843 0.454348
782 1 0.812547 0.225168 0.4696
664 1 0.649447 0.478319 0.432068
582 5 0.910027 0.209553 0.436602
1179 5 0.965504 0.114419 0.451426
522 5 0.81056 0.181811 0.431933
214 1 0.867429 0.231552 0.405979
829 1 0.880698 0.155235 0.459897
1077 3 0.5157 0.49947 0.419578
95 5 0.773365 0.0602183 0.446336
517 5 0.747179 0.141348 0.402751
880 1 0.504122 0.422697 0.468748
466 1 0.517124 0.30034 0.472739
218 5 0.593595 0.366515 0.471783
1052 5 0.68931 0.305521 0.483591
1168 5 0.721587 0.409761 0.488904
546 2 0.605287 0.295514 0.440904
721 5 0.63832 0.39863 0.413269
593 3 0.663819 0.481492 0.455802
433 1 0.719758 0.350205 0.440958
312 1 0.658201 0.278647 0.428407
1004 2 0.75776 0.396245 0.449456
44 2 0.71788 0.305377 0.425045
57 1 0.632106 0.286069 0.460028
37 1 0.713863 0.336768 0.405757
669 1 0.719629 0.441583 0.45845
767 1 0.599807 0.472174 0.465619
586 1 0.593477 0.358486 0.43815
536 1 0.528673 0.459223 0.438088
1133 1 0.551989 0.259072 0.43533
863 2 0.539508 0.470483 0.458912
1091 1 0.790662 0.367415 0.46606
761 3 0.844824 0.371852 0.480506
476 5 0.90952 0.252479 0.475486
357 2 0.881547 0.478576 0.496729
263 1 0.899987 0.349704 0.469019
1138 1 0.94467 0.460059 0.493613
735 1 0.8482 0.443427 0.482581
636 1 0.878438 0.487846 0.43187
674 1 0.839504 0.445994 0.400972
64 2 0.823948 0.470624 0.421342
604 5 0.983467 0.264909 0.420869
131 1 0.922063 0.31668 0.402078
1021 5 0.844128 0.292277 0.445355
1190 5 0.942346 0.426422 0.416531
1035 5 0.922427 0.433442 0.454898
103 1 0.795392 0.423771 0.433681
672 1 0.761964 0.259553 0.42776
1121 2 0.562783 0.13771 0.526573
297 1 0.813909 0.327701 0.400338
164 1 0.585202 0.0825969 0.518263
73 2 0.587506 0.256729 0.524283
58 1 0.685863 0.0979612 0.518819
901 2 0.638494 0.079652 0.50552
304 1 0.594329 0.19161 0.521542
1041 1 0.572513 0.125673 0.54774
936 1 0.726667 0.0520578 0.594677
1139 1 0.644072 0.0916417 0.574608
53 1 0.694732 0.151336 0.596972
626 2 0.609089 0.138897 0.565164
210 5 0.740413 0.0533934 0.542246
339 2 0.702413 0.100609 0.583276
43 5 0.69479 0.197749 0.529337
369 1 0.650396 0.184704 0.559088
971 1 0.699 0.253388 0.589403
976 5 0.512061 0.377198 0.409855
830 1 0.575535 0.161983 0.582096
350 2 0.566772 0.0257171 0.590562
250 2 0.542505 0.19301 0.597117
1195 1 0.511046 0.0617051 0.590437
487 5 0.513083 0.0496029 0.548347
1154 5 0.774175 0.0975818 0.501099
515 5 0.874756 0.0947283 0.516833
408 1 0.974252 0.117478 0.523772
384 5 0.906268 0.223619 0.516761
224 1 0.805668 0.0299915 0.522718
794 1 0.943126 0.00917031 0.506654
1198 1 0.809914 0.188666 0.553876
157 1 0.907656 0.0473695 0.57787
348 5 0.506101 0.322484 0.564406
1005 1 0.837537 0.0864489 0.557047
332 1 0.973458 0.120175 0.559374
1187 2 0.877846 0.035905 0.559073
809 2 0.990232 0.13425 0.57952
677 1 0.966487 0.208626 0.540096
118 2 0.802718 0.135521 0.565058
147 1 0.912081 0.0159217 0.541535
570 1 0.945084 0.154771 0.593464
200 2 0.993957 0.149393 0.541731
273 1 0.817854 0.150368 0.585842
228 1 0.742847 0.116547 0.566714
895 1 0.539431 0.402672 0.500377
427 2 0.594066 0.408651 0.511971
1175 1 0.574378 0.170221 0.400649
509 1 0.579408 0.396419 0.532366
878 1 0.560526 0.283752 0.505804
924 1 0.610032 0.473797 0.509815
612 1 0.744546 0.317352 0.516047
235 1 0.639473 0.288039 0.529526
279 1 0.644207 0.372656 0.506379
899 1 0.730811 0.469918 0.511747
948 3 0.682575 0.339284 0.52406
431 2 0.706734 0.484141 0.586513
379 2 0.719877 0.455501 0.532461
720 1 0.751759 0.281188 0.557804
890 1 0.755692 0.446565 0.595207
831 2 0.636545 0.390433 0.580283
98 1 0.749048 0.340412 0.586469
203 2 0.716595 0.299754 0.574965
716 1 0.701525 0.393942 0.535747
391 1 0.674937 0.441208 0.574445
351 1 0.662669 0.334858 0.571984
172 1 0.674798 0.494937 0.540554
801 1 0.57343 0.492039 0.551342
1119 3 0.552961 0.423807 0.55228
1056 1 0.543459 0.262417 0.539647
850 1 0.577747 0.393827 0.57277
1081 5 0.606262 0.259366 0.567203
336 1 0.867006 0.464558 0.51672
884 1 0.834655 0.277511 0.531125
843 5 0.926166 0.389008 0.521411
488 1 0.986466 0.296946 0.519422
825 2 0.807959 0.327635 0.5205
133 1 0.837243 0.345879 0.502099
18 1 0.804878 0.404372 0.56712
982 3 0.816909 0.255453 0.551972
1102 1 0.887201 0.449557 0.552133
769 1 0.856524 0.275677 0.570413
291 1 0.915192 0.357691 0.586424
1158 1 0.94489 0.259993 0.58835
623 1 0.990286 0.452725 0.574454
1100 2 0.825806 0.425571 0.547975
946 1 0.945202 0.311508 0.555745
869 3 0.985088 0.275249 0.542099
742 2 0.913893 0.300871 0.574951
266 1 0.986414 0.46118 0.534622
529 1 0.817614 0.375386 0.534266
530 3 0.952503 0.474139 0.555719
737 2 0.783088 0.393107 0.586592
189 1 0.777258 0.468199 0.543244
1044 1 0.583519 0.00564883 0.570839
1109 1 0.500271 0.149698 0.522045
300 2 0.566298 0.193246 0.646847
1043 1 0.624502 0.216471 0.652489
788 1 0.715129 0.167827 0.653211
354 2 0.708046 0.210432 0.60441
441 2 0.62624 0.0141766 0.625032
748 1 0.676057 0.224997 0.623309
875 1 0.605613 0.0442088 0.607247
1152 1 0.658963 0.0555088 0.637773
122 5 0.655894 0.0981393 0.669006
46 5 0.724982 0.0584049 0.659207
656 2 0.686962 0.222158 0.644583
355 1 0.721038 0.378197 0.664225
539 1 0.531267 0.141033 0.64614
1025 1 0.526975 0.153261 0.613395
240 1 0.569344 0.246198 0.604488
601 1 0.535217 0.240272 0.636105
56 1 0.830479 0.380992 0.600503
430 5 0.814111 0.28893 0.609952
932 1 0.810413 0.0485576 0.658458
194 5 0.948684 0.042124 0.685306
1182 5 0.891995 0.203607 0.667994
33 5 0.888137 0.0999896 0.649336
383 1 0.964833 0.176948 0.652478
93 1 0.97924 0.213711 0.619426
736 5 0.836681 0.0442872 0.60115
666 1 0.875823 0.212178 0.609044
615 1 0.930817 0.0171461 0.635391
975 5 0.948149 0.0929232 0.619493
335 1 0.82661 0.124542 0.620223
292 2 0.82451 0.173052 0.606398
1151 1 0.771857 0.210209 0.610018
448 5 0.742652 0.0820118 0.623762
223 1 0.611723 0.416323 0.630051
933 2 0.646874 0.368176 0.622455
642 2 0.736895 0.431425 0.67038
527 1 0.707953 0.359687 0.629531
471 1 0.711505 0.484289 0.66529
457 2 0.741839 0.337086 0.646375
771 1 0.7205 0.277696 0.6493
498 1 0.995802 0.415179 0.606949
1130 2 0.561424 0.456312 0.629091
641 1 0.556108 0.477044 0.648794
463 2 0.555422 0.283825 0.621517
1009 1 0.606686 0.318702 0.627276
507 2 0.937606 0.213139 0.603446
524 1 0.505469 0.321906 0.617
453 1 0.851394 0.498229 0.648811
963 1 0.884302 0.392826 0.656798
1080 2 0.892948 0.39445 0.603274
65 1 0.898963 0.3657 0.622946
1132 2 0.850431 0.447814 0.661907
887 2 0.874097 0.344487 0.641165
675 1 0.801325 0.437566 0.675239
909 5 0.995847 0.411857 0.654246
569 1 0.803019 0.355496 0.643684
1040 1 0.880957 0.281573 0.644539
193 1 0.509553 0.427219 0.61912
152 1 0.640086 0.380925 0.600736
972 1 0.894798 0.458723 0.60277
1108 5 0.952664 0.010965 0.602262
600 1 0.570646 0.499717 0.614333
634 2 0.501984 0.898517 0.376097