ITEM: TIMESTEP
2800
ITEM: NUMBER OF ATOMS
1200
ITEM: BOX BOUNDS pp pp pp
-7.6266250050336382e-02 2.5098596345622489e+01
-7.6266250050336382e-02 2.5098596345622489e+01
-2.5251128845723162e+01 5.0273458941295317e+01
ITEM: ATOMS id type xs ys zs
760 1 0.0776149 0.146805 0.388879
419 1 0.225218 0.136941 0.371287
108 1 0.227596 0.042207 0.355446
96 1 0.0447273 0.0464703 0.386824
1076 1 0.185679 0.112067 0.33683
1193 1 0.110997 0.0872658 0.362401
580 5 0.147937 0.183576 0.354339
269 2 0.0235144 0.197845 0.341096
638 5 0.135702 0.149078 0.310561
390 2 0.0949393 0.0878038 0.383235
645 3 0.162486 0.0595375 0.349364
967 1 0.0720935 0.163271 0.334592
542 1 0.144284 0.0671664 0.395643
409 1 0.475503 0.386368 0.380284
1149 3 0.244346 0.110473 0.35067
660 1 0.277172 0.272299 0.362908
412 2 0.354722 0.369172 0.348094
992 5 0.0508554 0.0621758 0.337
635 5 0.3153 0.207469 0.330503
787 1 0.405665 0.239215 0.351619
314 1 0.449384 0.180685 0.386015
590 2 0.487193 0.233477 0.383959
559 1 0.432571 0.0330732 0.353395
973 5 0.450413 0.137616 0.353471
468 2 0.399234 0.147271 0.394179
1174 1 0.30497 0.12508 0.342001
1037 1 0.387113 0.102261 0.378176
432 5 0.319303 0.188813 0.365029
196 2 0.397117 0.0421596 0.371245
465 1 0.338478 0.0120843 0.367854
907 1 0.425563 0.0146147 0.387677
1159 2 0.425032 0.348079 0.383649
929 1 0.482785 0.253608 0.331878
628 1 0.385135 0.327272 0.335203
151 1 0.381409 0.356025 0.367385
624 3 0.499898 0.00841688 0.353987
26 5 0.218675 0.406895 0.332723
577 2 0.0999523 0.487167 0.360905
82 1 0.189882 0.32434 0.352444
382 5 0.215457 0.226464 0.383599
40 5 0.101897 0.343267 0.345487
813 1 0.0378726 0.466406 0.365921
403 5 0.141564 0.38833 0.377945
834 1 0.13117 0.488647 0.379883
418 1 0.0376382 0.253765 0.350753
915 1 0.129514 0.44588 0.347218
904 5 0.0109457 0.332553 0.370088
290 1 0.348494 0.185236 0.398594
1071 1 0.240914 0.356478 0.380917
456 1 0.474568 0.334731 0.35049
917 2 0.435845 0.489042 0.389524
935 2 0.435275 0.288566 0.341728
893 5 0.33315 0.275605 0.387725
460 1 0.368408 0.429922 0.342516
1053 1 0.290004 0.367571 0.350932
565 5 0.299844 0.438469 0.380891
346 2 0.246652 0.330954 0.361466
703 2 0.408197 0.468578 0.352906
241 1 0.444196 0.28529 0.383903
373 1 0.396672 0.460973 0.3752
1171 1 0.467975 0.444343 0.349146
1173 1 0.069926 0.337265 0.396504
500 5 0.447628 0.0326059 0.320177
1146 5 0.00237113 0.211333 0.382387
804 1 0.233367 0.0056766 0.388798
397 2 0.0424634 0.23279 0.472067
885 5 0.204632 0.229725 0.468842
1185 5 0.120025 0.165775 0.491186
88 1 0.0372954 0.170703 0.476451
28 1 0.207306 0.110076 0.495719
62 5 0.248662 0.031028 0.449421
953 5 0.0730466 0.0268911 0.423894
1060 5 0.179622 0.210749 0.432404
137 5 0.173681 0.108636 0.441832
377 2 0.0645361 0.171716 0.408154
537 1 0.222745 0.0553564 0.418434
15 5 0.0814329 0.0797268 0.471659
353 1 0.066344 0.235943 0.404315
1024 1 0.108472 0.152374 0.422517
1070 2 0.189602 0.0272362 0.40344
20 1 0.149458 0.026151 0.456052
1017 1 0.102678 0.244791 0.466081
208 1 0.220309 0.487012 0.437053
472 1 0.250546 0.0226697 0.480893
75 1 0.314902 0.0958902 0.497987
375 2 0.261325 0.0838299 0.485853
206 1 0.265502 0.233594 0.49521
407 1 0.484316 0.209752 0.494416
247 5 0.424787 0.106769 0.476003
378 2 0.459652 0.0212221 0.446104
516 1 0.457309 0.0892336 0.445692
406 1 0.467793 0.187662 0.42715
91 1 0.415032 0.115095 0.412043
920 2 0.46018 0.124189 0.426683
851 1 0.41616 0.494439 0.452056
858 1 0.274422 0.17552 0.439212
443 2 0.311195 0.137077 0.451194
14 1 0.327916 0.0800714 0.442742
968 1 0.270894 0.11948 0.468028
72 1 0.360737 0.172366 0.45786
922 5 0.357611 0.224361 0.486018
1194 5 0.324754 0.436166 0.563019
518 1 0.0473649 0.28786 0.59629
533 1 0.158719 0.281309 0.400557
779 5 0.140727 0.446301 0.470239
242 1 0.0284971 0.262673 0.491406
754 1 0.0303598 0.458405 0.471033
78 5 0.15796 0.312161 0.4808
663 1 0.119121 0.362918 0.458485
1079 5 0.225668 0.427467 0.405042
435 1 0.19861 0.307671 0.445248
871 3 0.0108336 0.437707 0.491843
69 2 0.207887 0.215783 0.59803
827 1 0.101911 0.303423 0.429013
689 2 0.143918 0.340196 0.4404
722 1 0.102424 0.477996 0.444658
1128 2 0.0378883 0.469758 0.448991
249 2 0.0990041 0.292255 0.407706
265 1 0.158085 0.385154 0.425318
741 5 0.0819469 0.41749 0.413977
188 5 0.240483 0.31665 0.412385
364 1 0.0150137 0.368229 0.495928
1039 5 0.253726 0.391234 0.447573
322 5 0.353938 0.232188 0.429831
32 5 0.291452 0.269531 0.455121
257 3 0.00544111 0.00277116 0.492715
1105 1 0.331949 0.350888 0.533833
34 1 0.245046 0.428525 0.479154
998 1 0.39199 0.353466 0.401882
102 5 0.497512 0.366341 0.447963
1078 1 0.385049 0.41202 0.470645
564 2 0.37976 0.369459 0.487293
139 5 0.264227 0.333163 0.492153
556 1 0.173619 0.483668 0.598832
561 1 0.358333 0.314069 0.480596
256 2 0.257083 0.488401 0.485843
447 2 0.485298 0.414645 0.492774
4 1 0.442886 0.366415 0.49251
204 1 0.458522 0.466144 0.501888
608 1 0.458469 0.461597 0.407202
696 5 0.434026 0.26114 0.460004
996 1 0.46879 0.289784 0.432033
109 1 0.32143 0.332194 0.427065
694 1 0.320172 0.459289 0.448647
494 2 0.358433 0.375336 0.41877
308 1 0.395966 0.399902 0.435209
633 1 0.326965 0.425201 0.410149
410 2 0.382585 0.440562 0.450908
487 5 0.487725 0.0718501 0.546319
640 1 0.0560668 0.0116315 0.571137
550 1 0.127325 0.128693 0.520766
574 5 0.0473825 0.102755 0.511614
1155 1 0.15271 0.241295 0.505185
520 2 0.189729 0.118557 0.517252
811 1 0.210829 0.0645442 0.526542
643 1 0.227237 0.168919 0.522111
785 1 0.107997 0.0887369 0.583187
857 1 0.208406 0.0624459 0.580522
114 2 0.245395 0.0209474 0.591862
1089 1 0.00723244 0.0810122 0.591236
1006 1 0.0478277 0.129202 0.547004
738 3 0.0734054 0.228683 0.590575
647 2 0.166363 0.111237 0.576538
192 1 0.156922 0.121409 0.555979
632 1 0.0283486 0.17982 0.582434
897 2 0.0621398 0.0471688 0.58857
826 3 0.105243 0.100728 0.541114
680 1 0.0985794 0.0339156 0.540994
548 1 0.185432 0.163666 0.587304
803 5 0.200668 0.199707 0.551832
219 1 0.119459 0.243566 0.573983
296 1 0.0699823 0.0114922 0.500272
211 5 0.321107 0.0435192 0.412396
991 5 0.334789 0.117031 0.590667
10 1 0.254946 0.238974 0.584815
23 1 0.35697 0.0887685 0.530226
298 2 0.267458 0.212493 0.515225
101 1 0.325161 0.182092 0.5178
854 2 0.35244 0.124813 0.512906
470 2 0.460043 0.180561 0.511699
413 1 0.433709 0.220123 0.527025
684 1 0.481932 0.0129568 0.520376
833 1 0.411972 0.140402 0.506233
81 1 0.414634 0.0213275 0.587682
961 2 0.444943 0.0785055 0.586646
900 3 0.419073 0.235147 0.591435
945 5 0.478683 0.182752 0.554298
42 1 0.479991 0.202822 0.587967
1161 1 0.425654 0.108344 0.568908
1066 5 0.372879 0.163248 0.549162
596 1 0.288292 0.172049 0.560892
1199 2 0.30547 0.224429 0.57219
220 1 0.304894 0.023857 0.583746
646 5 0.272208 0.089423 0.548489
837 5 0.363239 0.0340952 0.556283
438 1 0.358979 0.210423 0.582653
392 1 0.0117658 0.419138 0.439577
861 1 0.486584 0.496387 0.594676
342 5 0.141857 0.496287 0.52268
1117 5 0.123338 0.354297 0.596686
930 2 0.498063 0.0198408 0.4999
1001 2 0.148136 0.29053 0.518322
92 1 0.0906028 0.319122 0.51341
916 1 0.0497977 0.467566 0.508189
605 1 0.197409 0.330089 0.513851
424 2 0.0291793 0.311495 0.505387
798 5 0.201155 0.42211 0.510805
317 3 0.227386 0.473667 0.583468
611 1 0.238677 0.345284 0.55066
215 1 0.203767 0.430025 0.567781
367 5 0.0621936 0.394226 0.532042
366 1 0.0560674 0.304573 0.552488
759 1 0.144739 0.344025 0.565333
231 2 0.116415 0.288585 0.558654
153 1 0.147903 0.271918 0.539576
127 1 0.153627 0.408123 0.53827
352 1 0.0663983 0.475676 0.592339
174 2 0.187455 0.383072 0.554163
439 5 0.109905 0.460638 0.563597
105 2 0.286454 0.311638 0.541949
1054 5 0.0264885 0.345261 0.461762
372 1 0.34933 0.330687 0.594415
706 1 0.439538 0.484862 0.562858
977 1 0.268836 0.262822 0.528867
535 1 0.28258 0.442037 0.530718
227 1 0.438074 0.294397 0.580973
340 1 0.379465 0.482222 0.59405
966 1 0.38467 0.444606 0.532708
784 2 0.440611 0.462545 0.542936
348 5 0.478365 0.332052 0.554072
303 1 0.484876 0.417389 0.540006
558 5 0.257795 0.337137 0.592628
100 2 0.335056 0.410348 0.524302
1013 1 0.348109 0.393424 0.503913
652 5 0.399564 0.292466 0.548423
1099 1 0.400862 0.382394 0.567863
547 1 0.310867 0.495852 0.497536
812 2 0.406091 0.349358 0.586236
1118 1 0.27805 0.433447 0.594997
943 5 0.482009 0.316068 0.519093
1057 1 0.312461 0.276895 0.559341
479 1 0.45681 0.00721863 0.424852
395 5 0.360298 0.00811882 0.511869
309 5 0.253175 0.138272 0.4042
746 1 0.00551542 0.159119 0.415443
786 2 0.000238227 0.46845 0.590945
880 1 0.499167 0.433771 0.472644
1059 1 0.0076181 0.472672 0.40009
1131 5 0.146694 0.0250045 0.674854
142 1 0.171628 0.122765 0.670465
711 5 0.152511 0.0130501 0.63022
700 1 0.147185 0.153243 0.636845
359 1 0.215299 0.077725 0.64266
1126 1 0.0958649 0.199181 0.610359
47 2 0.108598 0.204671 0.631636
94 1 0.0500887 0.199227 0.641272
230 2 0.191229 0.133792 0.650867
986 1 0.242484 0.0389742 0.612475
1108 5 0.0240161 0.0553887 0.634178
956 1 0.34429 0.439237 0.62253
123 1 0.243746 0.173566 0.649206
610 1 0.238244 0.189456 0.615349
1094 2 0.267127 0.0590303 0.631337
1072 1 0.42659 0.158219 0.636582
753 1 0.471365 0.0618159 0.63162
209 1 0.418091 0.232479 0.613848
255 1 0.332682 0.212047 0.633442
365 1 0.299264 0.114892 0.627625
111 2 0.398661 0.219693 0.633661
651 2 0.280735 0.177299 0.631404
415 1 0.429958 0.108541 0.604955
1042 2 0.460784 0.119829 0.623191
1103 2 0.46462 0.00260993 0.640488
909 5 0.0616258 0.294396 0.659587
50 5 0.0438489 0.446246 0.659396
1085 2 0.112267 0.49357 0.606851
458 1 0.135 0.262041 0.636777
51 1 0.140033 0.420677 0.654631
343 1 0.23837 0.294801 0.631257
1114 2 0.177577 0.298597 0.625472
1145 1 0.0617986 0.369423 0.639397
870 1 0.155715 0.359131 0.626202
631 1 0.108248 0.454404 0.623754
1069 2 0.11715 0.401678 0.63597
524 1 0.494708 0.318118 0.624641
551 1 0.179195 0.270276 0.606001
931 1 0.302561 0.0126996 0.639832
202 5 0.451825 0.351328 0.661655
1150 1 0.443561 0.41404 0.63251
525 2 0.477335 0.378848 0.618954
607 2 0.32463 0.468515 0.605185
1183 5 0.330305 0.312319 0.661509
1000 1 0.367282 0.40023 0.654923
71 2 0.386888 0.439379 0.639213
999 1 0.411781 0.26506 0.647949
31 5 0.321932 0.331946 0.629774
639 5 0.205109 0.480694 0.659237
1111 1 0.0766106 0.00673111 0.604357
344 1 0.442959 0.377258 0.601438
370 1 0.0995392 0.548939 0.354385
388 1 0.243565 0.722667 0.387066
1136 1 0.166667 0.747552 0.365098
1101 1 0.156657 0.586739 0.384373
763 1 0.0643598 0.765945 0.363193
708 1 0.10044 0.664558 0.363224
85 1 0.0417929 0.585595 0.382374
839 2 0.107162 0.725885 0.370542
572 2 0.168063 0.528839 0.392796
1144 3 0.0973871 0.601264 0.370651
1135 1 0.101323 0.725867 0.39256
429 5 0.240519 0.624326 0.387555
575 1 0.230923 0.516309 0.392415
793 3 0.269685 0.997911 0.368176
734 5 0.335853 0.708826 0.376332
1033 1 0.402952 0.63926 0.338699
1064 1 0.478766 0.595121 0.35858
918 1 0.405862 0.532914 0.349461
715 2 0.414258 0.595735 0.35407
579 1 0.384047 0.612555 0.372937
124 2 0.395436 0.607094 0.395094
9 1 0.486552 0.515714 0.378477
176 5 0.347433 0.714378 0.331726
697 5 0.378135 0.932422 0.354488
84 3 0.233906 0.759806 0.366439
1122 1 0.255051 0.936399 0.360228
1088 2 0.217015 0.890904 0.368523
286 1 0.238649 0.829465 0.367647
797 1 0.195051 0.895549 0.390186
89 1 0.161893 0.897216 0.356884
416 1 0.0564499 0.919712 0.34924
6 5 0.0494253 0.852939 0.377309
519 2 0.112572 0.938786 0.356888
747 1 0.108401 0.947234 0.379816
52 5 0.350376 0.83469 0.382016
758 1 0.448079 0.865213 0.381043
750 5 0.195645 0.771069 0.332954
762 1 0.132377 0.995027 0.348805
679 1 0.296079 0.902864 0.391766
404 1 0.272007 0.736579 0.349748
919 1 0.402136 0.54236 0.395582
422 5 0.00989079 0.694819 0.3483
1186 1 0.493402 0.940036 0.360501
815 2 0.135875 0.92341 0.397931
1007 1 0.181259 0.616386 0.480614
12 5 0.0867648 0.726844 0.477157
1157 1 0.092937 0.636325 0.465383
531 1 0.223414 0.72941 0.423912
620 2 0.200833 0.669617 0.427482
135 1 0.181133 0.670146 0.448522
1058 1 0.150432 0.656493 0.414178
670 1 0.160123 0.572236 0.448124
444 1 0.147764 0.522879 0.413158
994 5 0.0439114 0.613711 0.440171
446 1 0.0408188 0.662019 0.412077
1137 2 0.0977901 0.693116 0.410763
1169 2 0.15502 0.625456 0.461343
1112 3 0.20201 0.582356 0.500291
739 5 0.0518209 0.540563 0.416044
1180 5 0.370096 0.738535 0.595089
445 3 0.153356 0.51371 0.435406
718 1 0.25102 0.628809 0.424176
1083 1 0.334812 0.634362 0.477935
213 5 0.374826 0.541992 0.480468
1002 1 0.260345 0.522749 0.466935
1018 2 0.306668 0.648583 0.496238
349 1 0.277782 0.705755 0.496866
749 1 0.400092 0.706692 0.465164
554 5 0.444829 0.662456 0.492236
360 1 0.453889 0.923732 0.590935
501 5 0.474121 0.657519 0.436117
499 1 0.42281 0.732188 0.427834
528 1 0.421904 0.606083 0.459107
1049 3 0.457825 0.549032 0.451777
1031 1 0.337012 0.650635 0.442981
789 1 0.307367 0.553645 0.435782
562 1 0.329439 0.740543 0.407856
847 1 0.346866 0.616809 0.408958
911 2 0.313576 0.611919 0.427787
740 2 0.275342 0.504385 0.44669
1038 2 0.371986 0.649521 0.460886
238 1 0.483478 0.549451 0.430434
387 1 0.436202 0.56733 0.500496
173 1 0.00328713 0.522337 0.443666
844 2 0.240299 0.751229 0.487574
11 1 0.177102 0.739049 0.487407
637 1 0.154987 0.972988 0.40948
426 1 0.0607606 0.858011 0.468384
1087 1 0.128863 0.953419 0.479476
167 5 0.140637 0.855778 0.48475
374 1 0.240097 0.908641 0.488681
705 2 0.239036 0.906951 0.444636
603 1 0.247036 0.911606 0.423314
475 5 0.013946 0.899057 0.4203
823 5 0.180377 0.767193 0.447452
180 5 0.103045 0.865159 0.440138
35 1 0.0952833 0.734383 0.427509
594 1 0.181682 0.928654 0.450844
988 2 0.131471 0.964735 0.458248
685 2 0.0187415 0.504168 0.52375
892 1 0.0788078 0.953996 0.447183
997 5 0.0273036 0.769617 0.44547
544 1 0.216078 0.590338 0.599419
70 2 0.00778531 0.87753 0.478113
183 2 0.248333 0.882711 0.403928
386 1 0.254079 0.819703 0.406638
731 1 0.354325 0.822844 0.573388
985 5 0.312822 0.517518 0.406194
462 5 0.493144 0.629024 0.526717
1197 2 0.450611 0.747411 0.467989
1156 3 0.261286 0.752757 0.406578
941 1 0.346591 0.965527 0.484112
764 1 0.340929 0.829575 0.469141
881 1 0.265099 0.759176 0.467079
1015 3 0.276992 0.958425 0.478999
294 1 0.431534 0.906342 0.47392
293 1 0.451995 0.760432 0.489605
45 1 0.204713 0.514928 0.496226
874 2 0.405675 0.965059 0.476558
140 1 0.389473 0.821643 0.414697
699 1 0.403096 0.931014 0.412417
958 3 0.400904 0.857217 0.461994
325 1 0.442742 0.802561 0.456729
277 1 0.479679 0.864642 0.425436
898 3 0.449441 0.976218 0.404446
356 2 0.416477 0.874875 0.423024
1034 1 0.387014 0.8833 0.442007
226 1 0.281013 0.942634 0.456011
138 1 0.333068 0.777338 0.44021
513 2 0.295924 0.803853 0.455254
980 5 0.346394 0.969771 0.433344
144 2 0.368976 0.765395 0.422704
942 1 0.250008 0.84323 0.448763
1189 5 0.145862 0.699912 0.521817
549 1 0.0605912 0.673643 0.529207
1147 5 0.082462 0.619517 0.500903
665 2 0.0115084 0.717015 0.529701
657 1 0.164409 0.595028 0.518878
655 5 0.24317 0.654361 0.533843
120 1 0.232201 0.620571 0.567406
910 5 0.106266 0.605905 0.545396
182 1 0.154766 0.552352 0.570749
39 1 0.0598353 0.51848 0.539279
616 1 0.0378464 0.639964 0.573857
506 1 0.141198 0.649414 0.583661
1142 5 0.0463234 0.541873 0.569765
820 2 0.0795695 0.674306 0.585144
751 1 0.171417 0.729922 0.553467
145 1 0.0841937 0.733634 0.576943
1061 2 0.182753 0.601135 0.580666
949 5 0.0205701 0.883153 0.525703
7 1 0.00937071 0.744121 0.510376
886 5 0.266734 0.715542 0.565163
853 5 0.0300356 0.797319 0.40741
334 1 0.0972174 0.880267 0.406699
450 2 0.434708 0.929612 0.570184
618 5 0.248209 0.529842 0.53228
307 2 0.36687 0.701665 0.526919
678 1 0.353674 0.656636 0.511862
568 5 0.349114 0.557304 0.520003
168 1 0.267417 0.601453 0.502402
978 2 0.469028 0.523486 0.510457
581 1 0.413352 0.675827 0.539698
902 1 0.410061 0.677889 0.573846
181 1 0.43163 0.571342 0.581843
1170 2 0.441486 0.703708 0.556949
541 5 0.403795 0.575155 0.549806
281 1 0.312376 0.5832 0.547754
79 1 0.315307 0.722735 0.536978
1 1 0.324816 0.60767 0.582561
143 1 0.268582 0.524565 0.57394
1028 3 0.390023 0.625793 0.586985
534 2 0.286574 0.584862 0.567237
268 1 0.456746 0.517532 0.53167
905 1 0.366365 0.938565 0.571706
474 1 0.163873 0.982389 0.512605
862 1 0.010118 0.97417 0.540722
484 1 0.438476 0.871237 0.560948
490 5 0.133186 0.839123 0.527722
1050 1 0.092536 0.910294 0.508983
952 2 0.433318 0.50527 0.583208
576 2 0.115145 0.964368 0.500049
246 1 0.212946 0.869517 0.52105
702 1 0.0216281 0.757133 0.545582
1116 1 0.221985 0.959752 0.593376
1141 1 0.213424 0.979139 0.54663
262 1 0.168358 0.765659 0.5877
727 3 0.0849363 0.873961 0.567922
860 2 0.0640268 0.987999 0.550967
451 5 0.153774 0.97439 0.57056
405 1 0.0979707 0.907572 0.588054
765 1 0.123324 0.821343 0.561864
399 5 0.186817 0.886909 0.549671
376 1 0.0922798 0.929067 0.553291
482 1 0.0202386 0.852446 0.56424
567 2 0.139471 0.760918 0.568721
221 2 0.293132 0.825382 0.581661
310 5 0.298184 0.934342 0.547866
434 1 0.24982 0.807299 0.497383
234 3 0.35729 0.982654 0.58964
592 1 0.364957 0.839838 0.539007
283 1 0.400791 0.749577 0.51845
1023 1 0.285294 0.873195 0.596483
841 5 0.243346 0.793136 0.53757
816 1 0.253822 0.834484 0.565193
1115 1 0.282223 0.770493 0.592055
1113 1 0.491189 0.806174 0.522531
1011 2 0.253854 0.867512 0.504945
1184 1 0.312591 0.881949 0.511853
495 1 0.394131 0.931632 0.527038
1093 2 0.369104 0.875801 0.520619
41 1 0.269973 0.985807 0.517504
511 1 0.411485 0.846107 0.507284
83 2 0.441745 0.788485 0.508526
368 2 0.396635 0.822489 0.556849
414 1 0.453315 0.974558 0.555621
719 3 0.454335 0.959044 0.532483
1095 1 0.458388 0.783979 0.590075
315 1 0.425526 0.765585 0.554246
86 1 0.411484 0.996749 0.457627
598 1 0.448495 0.638628 0.401086
252 1 0.00261249 0.935893 0.487182
545 2 0.213185 0.997883 0.526156
289 1 0.497522 0.908231 0.527642
361 5 0.00872804 0.602002 0.54212
1062 5 0.471126 0.793098 0.400797
877 1 0.444718 0.997816 0.490352
913 5 0.0751673 0.642435 0.669645
68 1 0.217329 0.565323 0.632805
852 2 0.243756 0.699554 0.666128
329 1 0.217125 0.648706 0.65405
950 2 0.178284 0.60252 0.645975
1166 1 0.218887 0.696495 0.685662
627 1 0.0241974 0.559844 0.665809
819 1 0.068063 0.660851 0.606074
609 2 0.0853379 0.613502 0.620944
704 1 0.146141 0.570177 0.660783
891 1 0.102594 0.55604 0.612355
455 1 0.135566 0.630685 0.63307
955 1 0.0324629 0.602163 0.633349
393 5 0.0962881 0.53163 0.685602
521 1 0.188625 0.855217 0.60553
1046 1 0.00800813 0.930158 0.601435
459 1 0.00767918 0.705947 0.668804
440 5 0.230033 0.687621 0.606438
54 1 0.398606 0.500946 0.643429
483 1 0.466635 0.558102 0.625115
1008 1 0.41883 0.731276 0.654098
1191 1 0.480313 0.753583 0.623057
1074 2 0.426176 0.558837 0.642819
106 1 0.460839 0.575555 0.659838
119 1 0.386139 0.649218 0.608566
125 1 0.308843 0.697604 0.667436
1125 2 0.25491 0.572619 0.615027
186 2 0.35364 0.73084 0.655659
923 1 0.29169 0.623499 0.620332
733 1 0.295134 0.522704 0.611041
927 1 0.341399 0.701913 0.636346
363 1 0.380311 0.603342 0.639207
129 2 0.349979 0.645919 0.626292
1106 1 0.395382 0.807469 0.632352
710 1 0.227322 0.754371 0.65539
1020 1 0.0356726 0.739912 0.636462
937 3 0.222556 0.907675 0.647838
442 2 0.233079 0.902206 0.605812
1167 2 0.219018 0.798806 0.639802
588 1 0.200796 0.767662 0.622797
653 1 0.237259 0.926516 0.62617
80 1 0.179376 0.848612 0.643989
712 1 0.105015 0.787622 0.615153
1067 2 0.166223 0.794425 0.606702
502 2 0.00678893 0.858207 0.645733
802 2 0.0442031 0.779801 0.619496
244 3 0.123161 0.896574 0.643423
324 1 0.165406 0.946954 0.651877
1124 2 0.0700433 0.941932 0.603882
1003 1 0.0666868 0.87323 0.654345
60 1 0.0967288 0.921052 0.623658
345 1 0.0151163 0.837215 0.625758
104 5 0.158077 0.77663 0.693735
1014 1 0.401604 0.993021 0.643072
838 1 0.473801 0.961502 0.623572
437 5 0.325055 0.664101 0.69702
908 1 0.346989 0.906962 0.642018
338 1 0.488921 0.811907 0.649949
132 1 0.342841 0.793232 0.662066
867 5 0.395799 0.858295 0.604781
491 2 0.447436 0.774769 0.639951
1123 1 0.348969 0.967263 0.612381
205 5 0.325926 0.874664 0.686849
177 3 0.338706 0.839054 0.643577
217 1 0.276296 0.825927 0.635973
960 1 0.258529 0.888005 0.665492
1110 2 0.347038 0.968769 0.634208
236 1 0.00718849 0.759021 0.603221
99 2 0.497621 0.93281 0.605887
285 1 0.695244 0.1516 0.390283
725 1 0.638459 0.0612763 0.368639
464 1 0.684379 0.12819 0.345379
1178 2 0.70189 0.204016 0.37814
1092 2 0.688116 0.0690464 0.354948
810 1 0.742662 0.0677618 0.366315
1016 5 0.577878 0.138299 0.36593
321 1 0.537072 0.0378338 0.370962
934 1 0.517402 0.226862 0.364579
1148 2 0.594739 0.0249318 0.379428
947 2 0.889233 0.293645 0.359438
328 2 0.529669 0.222136 0.343043
688 1 0.690625 0.23833 0.337375
299 1 0.918535 0.346316 0.353312
984 1 0.646825 0.221748 0.367657
121 5 0.606279 0.0814066 0.329044
267 1 0.587019 0.252228 0.340967
903 1 0.683837 0.0234293 0.340158
835 1 0.97587 0.0022435 0.343468
757 1 0.532998 0.159996 0.339034
585 3 0.72767 0.182235 0.342141
16 2 0.644448 0.262376 0.349729
1200 1 0.831961 0.396335 0.370685
1096 1 0.719186 0.252414 0.391665
686 2 0.987969 0.469594 0.379453
1026 1 0.749329 0.199055 0.36411
1073 2 0.806229 0.0652915 0.372035
818 2 0.833421 0.113636 0.334926
330 1 0.888163 0.149924 0.330426
540 5 0.848114 0.188875 0.372366
436 1 0.893541 0.455787 0.345172
288 2 0.928527 0.193508 0.336518
1068 1 0.781499 0.150658 0.331918
990 1 0.834686 0.10331 0.356751
107 1 0.836905 0.0574384 0.32379
389 1 0.979192 0.209841 0.325053
1163 1 0.816348 0.0916514 0.391376
159 2 0.993653 0.0049566 0.390268
261 1 0.904428 0.240742 0.34782
428 1 0.630991 0.47352 0.331029
690 3 0.500715 0.391173 0.359108
614 1 0.970523 0.167054 0.351625
1032 1 0.818392 0.00245256 0.372042
799 2 0.753713 0.304095 0.39459
807 5 0.548477 0.445657 0.320905
297 1 0.8156 0.292157 0.398519
555 1 0.763046 0.382543 0.343719
497 5 0.686053 0.386111 0.325007
822 5 0.608868 0.240622 0.397538
940 1 0.581049 0.329237 0.384982
729 1 0.649263 0.322689 0.357765
396 1 0.749933 0.452019 0.379571
254 2 0.687092 0.461859 0.379474
77 1 0.650008 0.410444 0.377313
774 1 0.568112 0.394676 0.357366
1192 2 0.611926 0.366064 0.369548
676 1 0.750755 0.340424 0.377346
341 1 0.948086 0.419636 0.37771
1045 1 0.824634 0.304172 0.358312
477 5 0.880296 0.395 0.317555
732 2 0.811979 0.440588 0.384812
692 2 0.789125 0.357183 0.360559
745 3 0.900177 0.410238 0.361241
1010 1 0.902337 0.283516 0.380003
21 5 0.935107 0.0777245 0.355875
957 1 0.937653 0.034979 0.386153
845 1 0.535474 0.00978986 0.334159
493 5 0.929133 0.125778 0.395435
195 1 0.842302 0.495781 0.37976
1175 1 0.576407 0.146994 0.397104
649 1 0.66828 0.484567 0.398809
1019 5 0.545094 0.104687 0.464796
1030 2 0.536542 0.242324 0.487558
146 1 0.577179 0.198076 0.479172
691 1 0.631491 0.113877 0.489312
613 2 0.634998 0.171653 0.47849
179 1 0.682798 0.204261 0.487509
469 5 0.746506 0.0370967 0.467717
783 1 0.668401 0.0495555 0.452962
2 1 0.619182 0.107569 0.427254
454 1 0.650022 0.152954 0.457969
401 5 0.740815 0.19733 0.454482
128 5 0.600806 0.0120975 0.468014
489 1 0.721978 0.12147 0.433932
864 2 0.664932 0.107643 0.442661
795 5 0.682743 0.193337 0.41811
3 2 0.577098 0.0987513 0.410864
30 1 0.517668 0.102553 0.418979
115 1 0.518809 0.245442 0.402937
683 1 0.998521 0.255282 0.457923
1133 1 0.560861 0.239896 0.434989
770 1 0.514336 0.00534 0.455067
742 2 0.898844 0.306968 0.57442
478 1 0.80123 0.122371 0.47033
682 5 0.95744 0.155159 0.492741
253 5 0.880443 0.05011 0.471061
622 2 0.845952 0.168047 0.473322
604 5 0.998348 0.286867 0.427921
116 1 0.856199 0.177529 0.494725
199 5 0.863345 0.0241568 0.409254
687 1 0.508253 0.0808306 0.493364
782 1 0.8284 0.226021 0.465935
582 5 0.926541 0.188874 0.434803
1179 5 0.983106 0.116201 0.457136
522 5 0.774838 0.174129 0.411793
214 1 0.8787 0.211125 0.404078
829 1 0.899761 0.149158 0.463523
95 5 0.808193 0.0934487 0.439271
394 1 0.987027 0.0395516 0.47479
557 2 0.503718 0.240094 0.424389
1077 3 0.50709 0.489594 0.422119
218 5 0.585206 0.360318 0.467741
1052 5 0.690201 0.302121 0.480643
1168 5 0.711188 0.444454 0.491866
546 2 0.603009 0.282198 0.440829
721 5 0.639001 0.385286 0.409327
593 3 0.663617 0.479774 0.455328
433 1 0.716477 0.334691 0.447063
312 1 0.656768 0.273884 0.426762
1004 2 0.747821 0.382633 0.456145
44 2 0.715539 0.298277 0.429511
57 1 0.627369 0.276832 0.45984
37 1 0.729257 0.33325 0.411673
669 1 0.705998 0.429195 0.459026
767 1 0.600058 0.466008 0.46517
586 1 0.582601 0.342624 0.436694
536 1 0.527281 0.456039 0.440285
863 2 0.537841 0.474542 0.460544
976 5 0.515267 0.365626 0.408617
466 1 0.519487 0.29181 0.475834
693 5 0.767643 0.242518 0.492659
672 1 0.756904 0.249842 0.430753
591 5 0.955338 0.407328 0.413812
1091 1 0.777213 0.364355 0.474213
761 3 0.837634 0.375242 0.485364
476 5 0.912018 0.277228 0.476577
357 2 0.884723 0.48374 0.494179
263 1 0.887368 0.36742 0.470323
1138 1 0.944178 0.455759 0.494977
735 1 0.839121 0.440215 0.491525
636 1 0.881277 0.445529 0.430749
674 1 0.817464 0.420563 0.404922
64 2 0.81997 0.438246 0.426115
131 1 0.908039 0.313126 0.413422
1021 5 0.83466 0.305426 0.4477
1190 5 0.929822 0.368904 0.44038
1035 5 0.930582 0.45112 0.459501
103 1 0.792547 0.395559 0.440446
946 1 0.938844 0.312977 0.557703
1109 1 0.509307 0.153533 0.522511
190 1 0.787951 0.492057 0.428645
517 5 0.71531 0.0671738 0.401618
1100 2 0.814755 0.421519 0.549046
130 5 0.999376 0.351176 0.581906
467 2 0.87687 0.275104 0.400066
713 1 0.650155 0.0148305 0.498974
172 1 0.666911 0.499178 0.541456
1044 1 0.583024 0.0118405 0.567447
250 2 0.532851 0.18772 0.599076
1121 2 0.569256 0.137208 0.528872
164 1 0.593947 0.0820421 0.520363
58 1 0.691543 0.102723 0.516916
901 2 0.643752 0.0753298 0.505892
304 1 0.605659 0.189369 0.523749
1041 1 0.567838 0.138293 0.550068
936 1 0.712106 0.0391039 0.593173
1139 1 0.644197 0.102725 0.571605
53 1 0.682851 0.141841 0.599998
626 2 0.60813 0.153655 0.56605
210 5 0.743585 0.0663462 0.540434
339 2 0.694498 0.094192 0.584777
43 5 0.705642 0.200756 0.529322
369 1 0.641781 0.20863 0.562227
971 1 0.684265 0.240102 0.590545
830 1 0.572731 0.165687 0.584216
350 2 0.560737 0.0286958 0.586971
1195 1 0.508502 0.0693404 0.585471
944 1 0.645428 0.49627 0.599415
736 5 0.821192 0.0445095 0.595065
200 2 0.988884 0.154437 0.545515
1154 5 0.777916 0.117499 0.504494
515 5 0.881818 0.102963 0.515987
408 1 0.962001 0.139898 0.52664
384 5 0.895274 0.212938 0.523543
224 1 0.811956 0.036283 0.517491
1198 1 0.811768 0.181421 0.55239
157 1 0.911288 0.0450124 0.581093
1005 1 0.838403 0.085408 0.561245
332 1 0.958503 0.129289 0.562197
1187 2 0.885107 0.0387855 0.56175
809 2 0.980052 0.135582 0.582749
118 2 0.805722 0.13744 0.566941
147 1 0.922942 0.0245836 0.544843
570 1 0.937297 0.166472 0.595667
273 1 0.825562 0.163742 0.586258
228 1 0.746605 0.115786 0.572781
794 1 0.964847 0.0115572 0.511184
677 1 0.986132 0.220018 0.546988
801 1 0.562452 0.486101 0.547717
73 2 0.593369 0.255375 0.525419
152 1 0.622552 0.363362 0.596716
895 1 0.538425 0.402041 0.503626
427 2 0.59833 0.40937 0.512843
509 1 0.591783 0.394488 0.533698
878 1 0.564352 0.265803 0.506076
924 1 0.613669 0.471904 0.510154
235 1 0.646972 0.290463 0.528428
279 1 0.64175 0.370206 0.503146
948 3 0.684085 0.34348 0.520216
431 2 0.679113 0.465323 0.584293
379 2 0.717536 0.469176 0.531566
720 1 0.733181 0.254337 0.557116
890 1 0.718605 0.42109 0.593839
831 2 0.618868 0.365699 0.574471
98 1 0.722539 0.330277 0.579118
203 2 0.6798 0.262766 0.569428
716 1 0.701408 0.40613 0.529148
391 1 0.648106 0.423805 0.570996
351 1 0.6326 0.307364 0.567007
1119 3 0.548418 0.419778 0.549288
1056 1 0.549374 0.266477 0.541159
850 1 0.559175 0.377681 0.566755
1081 5 0.542863 0.275764 0.574271
612 1 0.745592 0.323023 0.511484
840 1 0.593261 0.0441123 0.400147
530 3 0.940234 0.473562 0.553298
737 2 0.758512 0.378865 0.585001
430 5 0.779454 0.262288 0.591853
266 1 0.976154 0.46598 0.533567
189 1 0.770341 0.467283 0.543592
529 1 0.812604 0.373735 0.534437
869 3 0.993087 0.286193 0.544864
884 1 0.81568 0.273479 0.531388
843 5 0.934011 0.38102 0.519643
488 1 0.986122 0.300479 0.521403
825 2 0.804439 0.326864 0.520238
133 1 0.843332 0.334354 0.503713
18 1 0.79354 0.404015 0.568991
982 3 0.802719 0.251402 0.552294
1102 1 0.874563 0.446012 0.549897
769 1 0.841996 0.280173 0.568355
291 1 0.891074 0.364439 0.585021
1158 1 0.922408 0.268783 0.590395
623 1 0.980501 0.450185 0.570542
300 2 0.569783 0.195992 0.653696
1043 1 0.631705 0.204187 0.657813
788 1 0.730814 0.174595 0.651057
354 2 0.696495 0.201474 0.607455
441 2 0.629449 0.0238924 0.620228
748 1 0.670168 0.215713 0.62629
615 1 0.941246 0.00887167 0.642485
1152 1 0.661133 0.0617455 0.633383
122 5 0.69183 0.0884485 0.662219
656 2 0.686507 0.218049 0.646833
539 1 0.546369 0.138923 0.655206
1025 1 0.513223 0.148998 0.61511
240 1 0.556341 0.244189 0.607704
601 1 0.547138 0.245946 0.643257
448 5 0.74441 0.0899689 0.631116
875 1 0.608204 0.0463319 0.600483
932 1 0.82216 0.0488446 0.655929
194 5 0.927746 0.0777731 0.66564
33 5 0.83149 0.149164 0.652932
383 1 0.955988 0.208639 0.65622
93 1 0.964602 0.234302 0.622496
666 1 0.864948 0.216972 0.613669
975 5 0.918286 0.0555037 0.614284
335 1 0.825123 0.116742 0.618224
292 2 0.820571 0.171351 0.608035
1151 1 0.760774 0.198494 0.611395
1140 2 0.986233 0.192463 0.638326
136 5 0.991119 0.326204 0.621531
162 1 0.973463 0.13185 0.632019
498 1 0.981461 0.420604 0.60417
355 1 0.713183 0.390429 0.64922
223 1 0.641711 0.418655 0.626957
933 2 0.645023 0.359241 0.616928
642 2 0.694025 0.443941 0.638996
527 1 0.704473 0.336841 0.621973
457 2 0.73348 0.33298 0.641876
771 1 0.709585 0.278633 0.650763
1130 2 0.577712 0.440793 0.629798
641 1 0.565041 0.429991 0.650997
463 2 0.549526 0.282248 0.625279
1009 1 0.60031 0.322808 0.626881
193 1 0.535954 0.407655 0.6172
471 1 0.673122 0.496617 0.647868
675 1 0.746181 0.458834 0.626806
481 1 0.575651 0.00358907 0.63008
337 5 0.969339 0.405876 0.63425
1182 5 0.90819 0.264097 0.676859
1080 2 0.860731 0.38203 0.602542
972 1 0.84659 0.443877 0.607734
1040 1 0.896398 0.348347 0.656892
963 1 0.834499 0.424655 0.640681
569 1 0.797474 0.328932 0.642255
65 1 0.883289 0.359194 0.621161
1132 2 0.812786 0.466403 0.625495
887 2 0.857253 0.362843 0.641482
507 2 0.925931 0.22233 0.605433
56 1 0.80173 0.359795 0.60003
239 1 0.648193 0.574667 0.341514
411 2 0.735397 0.618988 0.371314
385 5 0.768106 0.987883 0.330635
876 2 0.626053 0.51345 0.347133