ITEM: TIMESTEP
2200
ITEM: NUMBER OF ATOMS
1200
ITEM: BOX BOUNDS pp pp pp
-7.6266250050336382e-02 2.5098596345622489e+01
-7.6266250050336382e-02 2.5098596345622489e+01
-2.5251128845723162e+01 5.0273458941295317e+01
ITEM: ATOMS id type xs ys zs
760 1 0.064518 0.141782 0.39465
419 1 0.235989 0.148407 0.373341
108 1 0.23014 0.0498511 0.360372
96 1 0.0282354 0.0523043 0.385546
1076 1 0.183768 0.111708 0.341112
1193 1 0.0998493 0.0921932 0.362987
580 5 0.182781 0.211245 0.34877
269 2 0.0224432 0.234104 0.33723
638 5 0.141105 0.150742 0.316931
390 2 0.0822009 0.0898434 0.383359
645 3 0.15907 0.0595466 0.354259
967 1 0.0803906 0.215617 0.332047
542 1 0.131811 0.0582713 0.39345
804 1 0.225055 0.00848039 0.393486
1149 3 0.246825 0.115937 0.353491
660 1 0.264032 0.262548 0.356977
1146 5 0.0243341 0.260643 0.379437
992 5 0.046642 0.0784215 0.335918
635 5 0.311516 0.230276 0.329183
787 1 0.408311 0.237638 0.35225
314 1 0.454765 0.176085 0.387407
590 2 0.482838 0.235451 0.385672
559 1 0.425596 0.0183824 0.358957
973 5 0.413414 0.129734 0.339511
468 2 0.402079 0.142901 0.393082
1174 1 0.29875 0.135497 0.340229
1037 1 0.386563 0.103928 0.376533
432 5 0.329494 0.18982 0.362901
196 2 0.38729 0.0388549 0.375104
465 1 0.326405 0.0142447 0.374886
907 1 0.411457 0.0180096 0.394049
624 3 0.493701 0.000823643 0.357627
929 1 0.490286 0.243125 0.333453
628 1 0.395456 0.323114 0.334917
151 1 0.376063 0.351735 0.367546
575 1 0.218851 0.491012 0.3927
26 5 0.192031 0.432634 0.341905
577 2 0.0847285 0.47311 0.363683
82 1 0.19263 0.331366 0.343865
1173 1 0.0708035 0.326044 0.394935
40 5 0.110393 0.326864 0.333362
813 1 0.0221601 0.466046 0.36908
403 5 0.146288 0.366732 0.37981
834 1 0.119924 0.46927 0.38266
418 1 0.0193878 0.291652 0.345712
915 1 0.101798 0.424161 0.349935
904 5 0.0229405 0.366563 0.369852
290 1 0.355272 0.184868 0.396216
1071 1 0.241556 0.349631 0.375208
456 1 0.481108 0.326627 0.352196
917 2 0.444204 0.485979 0.390569
935 2 0.444938 0.280543 0.342945
893 5 0.333866 0.266026 0.381532
460 1 0.374094 0.426003 0.343704
1053 1 0.293275 0.355957 0.346169
565 5 0.286547 0.4346 0.382363
346 2 0.244798 0.324282 0.355592
703 2 0.416284 0.461151 0.353891
241 1 0.438351 0.282853 0.385166
373 1 0.407506 0.45757 0.375182
1171 1 0.4745 0.434959 0.349164
409 1 0.476016 0.375844 0.381468
1159 2 0.418593 0.345109 0.384254
412 2 0.357065 0.363773 0.346171
397 2 0.0300095 0.213424 0.472907
885 5 0.195929 0.227623 0.47344
1185 5 0.119298 0.149594 0.488652
88 1 0.0283386 0.150281 0.477862
28 1 0.211466 0.11824 0.492273
62 5 0.236836 0.0303002 0.445215
953 5 0.0766238 0.0502344 0.428051
1060 5 0.128525 0.21962 0.438979
137 5 0.166727 0.119658 0.446759
377 2 0.0438932 0.17257 0.413328
537 1 0.197396 0.0679605 0.421192
15 5 0.059826 0.0585552 0.466177
353 1 0.0703057 0.231213 0.411067
1024 1 0.0691744 0.143573 0.430486
1070 2 0.177618 0.0307326 0.405466
20 1 0.145577 0.027019 0.456043
1017 1 0.0918265 0.224065 0.467903
208 1 0.214704 0.491826 0.442287
472 1 0.25443 0.0277809 0.481631
75 1 0.315015 0.109652 0.490961
375 2 0.261604 0.0905434 0.480004
206 1 0.265817 0.22994 0.492585
407 1 0.483718 0.219148 0.494208
247 5 0.389838 0.108845 0.470031
378 2 0.454931 0.0283651 0.449665
516 1 0.451465 0.0925038 0.447581
406 1 0.464795 0.182458 0.431192
91 1 0.413355 0.113993 0.411552
920 2 0.45752 0.118394 0.427667
1059 1 0.00868774 0.467121 0.402878
858 1 0.254037 0.177162 0.430702
443 2 0.294285 0.13703 0.4412
14 1 0.315986 0.0821605 0.431734
968 1 0.261815 0.113183 0.459674
72 1 0.34147 0.173629 0.449341
922 5 0.353252 0.218107 0.477784
1194 5 0.310359 0.425993 0.56182
556 1 0.17671 0.483025 0.59768
86 1 0.406488 0.00782623 0.46223
779 5 0.14352 0.430739 0.473619
242 1 0.0122849 0.251113 0.490085
754 1 0.0246818 0.452587 0.47247
78 5 0.125871 0.304344 0.48035
663 1 0.103524 0.364836 0.458529
1079 5 0.235884 0.43275 0.417483
435 1 0.182764 0.300487 0.45322
871 3 0.00750421 0.425397 0.492939
130 5 0.0116684 0.360655 0.575897
827 1 0.104734 0.310684 0.428581
689 2 0.142203 0.341654 0.443524
722 1 0.0926863 0.469684 0.445814
1128 2 0.0300232 0.461797 0.450505
249 2 0.102059 0.28745 0.408199
265 1 0.170479 0.38609 0.431198
741 5 0.0883974 0.426409 0.414739
188 5 0.238568 0.339747 0.407121
364 1 0.0130284 0.355805 0.494142
1039 5 0.257781 0.369511 0.449558
322 5 0.356603 0.244574 0.421863
32 5 0.277292 0.266066 0.446633
557 2 0.495216 0.237018 0.425918
1105 1 0.323054 0.34907 0.534696
34 1 0.245505 0.425802 0.478082
998 1 0.390728 0.363326 0.402213
102 5 0.479105 0.361442 0.449469
1078 1 0.376747 0.411225 0.471162
564 2 0.379319 0.365089 0.486279
139 5 0.254496 0.323906 0.487277
547 1 0.311644 0.483009 0.497854
561 1 0.366374 0.309911 0.476549
256 2 0.257903 0.483462 0.486053
447 2 0.487175 0.41145 0.492706
4 1 0.442024 0.365867 0.493387
204 1 0.458468 0.465002 0.501458
608 1 0.464525 0.457348 0.408807
696 5 0.424155 0.252777 0.45832
996 1 0.453839 0.284379 0.429458
109 1 0.312812 0.346842 0.425556
694 1 0.319484 0.461505 0.447971
494 2 0.359059 0.388168 0.418868
308 1 0.396072 0.400798 0.436032
633 1 0.331923 0.441704 0.411383
410 2 0.379077 0.442284 0.45238
69 2 0.214979 0.214237 0.595442
640 1 0.0388913 0.00519586 0.568362
550 1 0.132516 0.119982 0.519474
574 5 0.0466722 0.110104 0.509367
1155 1 0.144878 0.222466 0.504563
520 2 0.195232 0.11941 0.514177
811 1 0.220063 0.0630909 0.520685
643 1 0.227345 0.169248 0.522453
785 1 0.108617 0.0829762 0.581165
857 1 0.206244 0.0558926 0.579112
114 2 0.244791 0.0165619 0.590041
1089 1 0.0105461 0.0846858 0.591609
1006 1 0.0515163 0.139135 0.544452
738 3 0.0770683 0.228159 0.587412
647 2 0.165406 0.107683 0.576404
192 1 0.162257 0.123352 0.555353
632 1 0.0238763 0.183962 0.583476
897 2 0.0573485 0.0437109 0.584637
826 3 0.110808 0.106556 0.540645
680 1 0.098705 0.0387565 0.543426
548 1 0.184711 0.159608 0.58794
803 5 0.203007 0.207227 0.550931
219 1 0.126903 0.237085 0.571543
296 1 0.0534351 0.011376 0.501244
861 1 0.48456 0.490479 0.59582
991 5 0.336663 0.124186 0.593805
10 1 0.258827 0.233898 0.580684
23 1 0.353562 0.0824457 0.52302
298 2 0.267723 0.211748 0.513009
101 1 0.325563 0.182519 0.515637
854 2 0.350431 0.126991 0.507997
470 2 0.458013 0.182466 0.510157
413 1 0.429657 0.22302 0.52499
684 1 0.484631 0.0141557 0.523888
833 1 0.411177 0.144643 0.501929
81 1 0.421112 0.0258559 0.590403
961 2 0.453053 0.0832202 0.588566
900 3 0.424933 0.232524 0.58774
945 5 0.479034 0.191642 0.553111
42 1 0.486362 0.200954 0.585485
1161 1 0.43661 0.105848 0.569
1066 5 0.375076 0.157921 0.546286
596 1 0.287632 0.157205 0.560448
1199 2 0.306124 0.214966 0.567455
220 1 0.307113 0.0212636 0.585128
646 5 0.258321 0.0736151 0.550519
837 5 0.375844 0.040584 0.553046
438 1 0.36626 0.207418 0.576166
1111 1 0.0783151 0.00164697 0.599959
930 2 0.495122 0.0142173 0.50198
685 2 0.0208159 0.499476 0.525334
1117 5 0.113123 0.369705 0.595445
518 1 0.050768 0.290813 0.589993
1001 2 0.137989 0.272403 0.516909
92 1 0.0771034 0.292894 0.513131
916 1 0.0411602 0.456908 0.510439
605 1 0.177915 0.318941 0.511152
424 2 0.0188294 0.297738 0.504196
798 5 0.19588 0.414102 0.51103
317 3 0.226169 0.473439 0.58225
611 1 0.230525 0.334372 0.548749
215 1 0.201618 0.427913 0.56676
367 5 0.059358 0.378459 0.53074
366 1 0.0491631 0.292002 0.552594
759 1 0.139442 0.339258 0.564525
231 2 0.11229 0.283749 0.557243
153 1 0.140329 0.264211 0.538536
127 1 0.147694 0.405966 0.53912
352 1 0.074127 0.468964 0.591411
174 2 0.18269 0.377635 0.554486
439 5 0.11444 0.464977 0.563364
105 2 0.282127 0.303393 0.54055
533 1 0.163593 0.275553 0.402655
372 1 0.352108 0.342295 0.593138
706 1 0.42507 0.482102 0.56132
977 1 0.266068 0.266132 0.524297
535 1 0.275961 0.437483 0.530459
227 1 0.437057 0.291719 0.576499
340 1 0.377592 0.477021 0.592696
966 1 0.380876 0.436681 0.530751
784 2 0.432658 0.461733 0.540534
348 5 0.474554 0.339825 0.551994
303 1 0.483994 0.422254 0.537743
558 5 0.26357 0.339732 0.598302
100 2 0.327581 0.405387 0.52308
1013 1 0.344249 0.380396 0.503384
652 5 0.405412 0.295641 0.54313
1099 1 0.400793 0.377488 0.564048
344 1 0.450734 0.37811 0.595662
812 2 0.40835 0.34781 0.582805
1118 1 0.276341 0.434203 0.592612
943 5 0.470436 0.300595 0.516375
1057 1 0.313466 0.261324 0.552906
1054 5 0.0130737 0.344903 0.460916
604 5 0.00278937 0.293111 0.430232
786 2 0.00542313 0.463849 0.593546
309 5 0.278003 0.119774 0.405736
851 1 0.419672 0.492406 0.453778
479 1 0.44768 0.00224464 0.430679
382 5 0.211838 0.186587 0.401439
487 5 0.499093 0.0650662 0.550647
952 2 0.431378 0.498098 0.582789
392 1 0.00130619 0.411972 0.440424
1131 5 0.206087 0.0199865 0.679142
142 1 0.178243 0.120805 0.670324
711 5 0.151082 0.0271623 0.623169
700 1 0.142654 0.14997 0.636729
359 1 0.21929 0.0769552 0.64362
1126 1 0.104999 0.20062 0.608365
47 2 0.111343 0.202943 0.629865
94 1 0.0519989 0.206898 0.638213
230 2 0.191197 0.133043 0.65053
986 1 0.240883 0.0400375 0.61087
1108 5 0.0142978 0.0471502 0.620068
956 1 0.342177 0.438673 0.622028
123 1 0.241285 0.174815 0.645181
610 1 0.255533 0.193516 0.611241
1094 2 0.265322 0.0587937 0.629796
1072 1 0.449618 0.178759 0.635301
753 1 0.478888 0.0673158 0.634252
209 1 0.413907 0.242285 0.609785
255 1 0.34286 0.202661 0.631781
365 1 0.299085 0.112261 0.625253
111 2 0.40202 0.22361 0.630407
651 2 0.285918 0.177337 0.629344
415 1 0.432228 0.1187 0.604928
1042 2 0.492235 0.129837 0.631222
1103 2 0.470296 0.00614358 0.641199
909 5 0.0920038 0.300294 0.662967
524 1 0.497196 0.320369 0.621599
1085 2 0.118264 0.491675 0.60603
458 1 0.145978 0.256097 0.634583
51 1 0.167048 0.414965 0.651398
343 1 0.248146 0.300816 0.630352
1114 2 0.187124 0.294702 0.623419
1145 1 0.0722418 0.377356 0.643976
870 1 0.158013 0.352402 0.624179
631 1 0.118362 0.454328 0.623852
1069 2 0.125559 0.400188 0.635723
639 5 0.22822 0.488507 0.653141
551 1 0.189099 0.267859 0.604086
931 1 0.303475 0.0140121 0.6385
202 5 0.457205 0.344985 0.656344
1150 1 0.446311 0.417414 0.627237
525 2 0.482857 0.381526 0.614164
607 2 0.322146 0.466605 0.603396
1183 5 0.307294 0.356165 0.647722
1000 1 0.379798 0.409467 0.652801
71 2 0.394181 0.443493 0.635885
999 1 0.403792 0.274245 0.643933
31 5 0.346071 0.320264 0.624486
50 5 0.0980893 0.498607 0.653784
370 1 0.0986093 0.530179 0.356
388 1 0.229608 0.72674 0.391986
1136 1 0.156934 0.748994 0.363387
1101 1 0.153729 0.567305 0.385113
763 1 0.0502138 0.747303 0.36305
708 1 0.10757 0.655113 0.363779
85 1 0.0454439 0.581634 0.382997
839 2 0.103291 0.719523 0.370724
572 2 0.157856 0.508677 0.394693
1144 3 0.102217 0.587023 0.370598
1135 1 0.0998497 0.720766 0.391644
429 5 0.22015 0.638752 0.380553
422 5 0.0198851 0.684284 0.343195
793 3 0.256222 0.996905 0.372912
734 5 0.331702 0.688395 0.379636
1033 1 0.396368 0.634136 0.343547
1064 1 0.483813 0.599052 0.361865
918 1 0.415748 0.526809 0.351244
715 2 0.42062 0.592079 0.357383
579 1 0.391354 0.604348 0.376466
124 2 0.398906 0.59981 0.39786
9 1 0.494101 0.515978 0.379432
176 5 0.322865 0.688036 0.334411
985 5 0.311704 0.521948 0.398783
84 3 0.220347 0.759922 0.37054
1122 1 0.239381 0.93446 0.366043
1088 2 0.205888 0.884954 0.373847
286 1 0.231145 0.827419 0.372604
797 1 0.189949 0.893424 0.395916
89 1 0.152239 0.889084 0.362029
416 1 0.050417 0.926601 0.352796
6 5 0.0501524 0.842721 0.372161
519 2 0.108149 0.939457 0.361062
747 1 0.105731 0.944657 0.383364
52 5 0.346247 0.828368 0.386151
758 1 0.445429 0.874004 0.384485
750 5 0.227628 0.79484 0.334505
762 1 0.133621 0.994088 0.353571
679 1 0.292708 0.90581 0.394862
404 1 0.271347 0.733113 0.357655
697 5 0.370557 0.927468 0.375368
919 1 0.411293 0.536369 0.399073
1007 1 0.160327 0.601549 0.481338
12 5 0.0894325 0.749597 0.477861
1157 1 0.0899055 0.655302 0.462547
531 1 0.213751 0.728037 0.427312
620 2 0.196628 0.666926 0.429118
135 1 0.185816 0.655188 0.450055
1058 1 0.138851 0.65989 0.42
670 1 0.136054 0.566459 0.449311
444 1 0.139642 0.510365 0.414906
994 5 0.0528733 0.602471 0.438591
446 1 0.0358349 0.671329 0.41479
1137 2 0.0931247 0.701044 0.412679
1169 2 0.143886 0.620399 0.461687
1112 3 0.200559 0.576139 0.498075
739 5 0.0513676 0.551261 0.414259
45 1 0.206035 0.505627 0.497135
445 3 0.146077 0.505426 0.438236
718 1 0.24585 0.632227 0.421632
1083 1 0.331392 0.645996 0.476642
213 5 0.359671 0.535831 0.475007
1002 1 0.26759 0.523335 0.469486
1018 2 0.30231 0.647957 0.495585
349 1 0.259343 0.6957 0.496088
749 1 0.399807 0.71133 0.466111
554 5 0.444974 0.654569 0.495576
238 1 0.478109 0.556773 0.429176
501 5 0.475572 0.663309 0.433293
499 1 0.412035 0.729803 0.430293
528 1 0.417242 0.608759 0.456671
1049 3 0.456049 0.550122 0.450686
1031 1 0.33734 0.653051 0.441574
789 1 0.297449 0.5581 0.436406
562 1 0.319428 0.732844 0.41121
847 1 0.343469 0.607713 0.408824
911 2 0.308843 0.616908 0.426998
740 2 0.275152 0.508674 0.448751
1038 2 0.372034 0.655997 0.459872
598 1 0.447365 0.640024 0.401868
387 1 0.419306 0.565981 0.497912
211 5 0.324836 0.989826 0.406866
844 2 0.239034 0.753303 0.488295
11 1 0.175565 0.758642 0.487947
637 1 0.149332 0.975598 0.414055
426 1 0.0646059 0.852125 0.469204
1087 1 0.116653 0.957345 0.480165
167 5 0.153563 0.858535 0.48846
374 1 0.245089 0.899087 0.487508
705 2 0.234646 0.907667 0.447873
603 1 0.243745 0.916885 0.426156
475 5 0.0187127 0.901488 0.43041
823 5 0.163015 0.769779 0.449293
180 5 0.114525 0.848864 0.44043
35 1 0.0949288 0.751979 0.425286
594 1 0.175117 0.925326 0.453391
988 2 0.127173 0.966353 0.458959
305 1 0.499396 0.713539 0.460493
892 1 0.0709986 0.957117 0.448011
997 5 0.0260489 0.801568 0.445151
334 1 0.0956343 0.874824 0.409211
70 2 0.00835278 0.874082 0.476495
183 2 0.24867 0.882804 0.407777
386 1 0.253434 0.821019 0.412626
170 1 0.0236908 0.974011 0.408942
815 2 0.128527 0.924706 0.402361
877 1 0.441173 0.989334 0.494198
1197 2 0.451786 0.749061 0.468021
1156 3 0.253267 0.754907 0.4112
941 1 0.342687 0.960496 0.485501
764 1 0.336666 0.832785 0.469203
881 1 0.263407 0.758275 0.468535
1015 3 0.274506 0.961533 0.481673
294 1 0.428483 0.907697 0.474287
293 1 0.462242 0.768944 0.488783
1062 5 0.484958 0.803065 0.40532
874 2 0.402772 0.96516 0.478661
140 1 0.383373 0.819925 0.416754
699 1 0.39576 0.927516 0.410308
958 3 0.397469 0.859239 0.461676
325 1 0.439663 0.806228 0.457414
277 1 0.471081 0.871941 0.425873
898 3 0.441899 0.977808 0.408425
356 2 0.408875 0.877528 0.423487
1034 1 0.37893 0.892954 0.442397
226 1 0.274315 0.94828 0.457955
138 1 0.321895 0.780188 0.440701
513 2 0.292625 0.804531 0.457644
980 5 0.344491 0.975982 0.437534
144 2 0.361414 0.761935 0.424345
942 1 0.245865 0.846061 0.452684
1189 5 0.156382 0.694581 0.518741
549 1 0.0616811 0.664845 0.528808
1147 5 0.0792906 0.611091 0.505692
665 2 0.0182124 0.710649 0.527865
657 1 0.174409 0.590903 0.518771
655 5 0.24505 0.645502 0.53313
120 1 0.232663 0.616717 0.566055
910 5 0.119412 0.612996 0.545189
182 1 0.151823 0.548392 0.568367
39 1 0.0693199 0.517605 0.538199
616 1 0.0336403 0.635625 0.57205
506 1 0.136339 0.647283 0.578636
1142 5 0.0388418 0.536786 0.568908
820 2 0.0762202 0.672441 0.58244
751 1 0.164953 0.728486 0.549685
145 1 0.0800907 0.731192 0.573484
1061 2 0.180361 0.59849 0.578173
544 1 0.209853 0.589087 0.597228
7 1 0.016975 0.739418 0.507874
886 5 0.252733 0.716353 0.566967
342 5 0.162504 0.511419 0.534408
853 5 0.0381089 0.7965 0.40411
395 5 0.346955 0.992973 0.512888
618 5 0.253592 0.520618 0.525971
307 2 0.371294 0.700942 0.525555
678 1 0.347899 0.655486 0.511242
568 5 0.342047 0.554399 0.517199
168 1 0.266805 0.595012 0.498191
978 2 0.459115 0.526092 0.507994
581 1 0.414369 0.67397 0.538971
902 1 0.421709 0.67223 0.573062
181 1 0.428786 0.563697 0.580779
1170 2 0.447562 0.701999 0.556031
541 5 0.407851 0.580522 0.549523
281 1 0.306919 0.578459 0.544932
79 1 0.3223 0.721218 0.537501
1 1 0.331908 0.603907 0.57753
143 1 0.265987 0.521773 0.573343
1028 3 0.392765 0.621534 0.58543
534 2 0.28696 0.578384 0.565353
268 1 0.445502 0.51823 0.52963
252 1 0.00070973 0.935611 0.483448
474 1 0.153738 0.989885 0.511742
862 1 0.00672582 0.985481 0.534804
949 5 0.0207644 0.875833 0.525384
490 5 0.128764 0.825221 0.522345
1050 1 0.0900985 0.910717 0.510288
1180 5 0.370957 0.743161 0.597288
576 2 0.101965 0.967079 0.500685
246 1 0.212454 0.866861 0.519946
702 1 0.0273298 0.759503 0.541438
1116 1 0.226852 0.955033 0.589703
1141 1 0.214939 0.982692 0.542675
262 1 0.168294 0.763722 0.585797
727 3 0.0803172 0.873975 0.563026
860 2 0.0580426 0.990548 0.547704
451 5 0.157261 0.967932 0.569162
405 1 0.0862161 0.906837 0.583115
765 1 0.124786 0.820794 0.560427
399 5 0.190202 0.886329 0.54826
376 1 0.0845726 0.931171 0.548914
482 1 0.0187458 0.845884 0.561689
567 2 0.13596 0.759941 0.566071
221 2 0.298625 0.823479 0.580903
310 5 0.291749 0.921565 0.54759
434 1 0.263247 0.803393 0.499192
234 3 0.364519 0.986032 0.59251
592 1 0.375471 0.836833 0.539242
283 1 0.405756 0.746932 0.515239
1023 1 0.291577 0.874864 0.593879
841 5 0.260205 0.793059 0.536029
816 1 0.259374 0.827317 0.563997
1115 1 0.283249 0.770633 0.592408
1113 1 0.492978 0.806114 0.524039
1011 2 0.260072 0.866981 0.505617
1184 1 0.314835 0.881269 0.516209
495 1 0.403454 0.933031 0.528697
1093 2 0.376663 0.877079 0.522176
41 1 0.256427 0.96939 0.510857
511 1 0.414366 0.848667 0.507393
83 2 0.446587 0.792794 0.508191
368 2 0.404616 0.820359 0.557202
414 1 0.457993 0.973444 0.557523
719 3 0.466576 0.958791 0.53518
1095 1 0.459342 0.772833 0.592461
315 1 0.436621 0.765009 0.554996
484 1 0.441697 0.871364 0.56185
450 2 0.435602 0.930075 0.571285
360 1 0.458309 0.924366 0.591617
731 1 0.360906 0.820906 0.573457
905 1 0.372283 0.942498 0.573855
361 5 0.000415556 0.600339 0.544377
545 2 0.209852 0.998078 0.52186
914 1 0.499967 0.949956 0.402006
913 5 0.101853 0.648626 0.672255
68 1 0.220135 0.568926 0.630614
852 2 0.238987 0.7046 0.661976
329 1 0.220371 0.657175 0.649348
950 2 0.182083 0.60847 0.64264
1166 1 0.204413 0.700559 0.680339
627 1 0.0419216 0.57149 0.667788
819 1 0.0678104 0.658501 0.604109
609 2 0.084254 0.611871 0.617937
704 1 0.157621 0.575724 0.659046
891 1 0.101181 0.555252 0.607707
455 1 0.137532 0.628921 0.628533
955 1 0.0405717 0.59812 0.633246
393 5 0.115278 0.552888 0.689076
906 2 0.0076896 0.569219 0.649626
1104 1 0.000514554 0.507735 0.644097
459 1 0.0271678 0.706625 0.670478
440 5 0.229872 0.697457 0.604121
521 1 0.192612 0.855689 0.601793
483 1 0.468795 0.567859 0.624349
1008 1 0.411623 0.734195 0.652809
1191 1 0.48013 0.746477 0.625595
1074 2 0.426374 0.567898 0.640743
106 1 0.454192 0.585191 0.658923
119 1 0.385732 0.652201 0.6058
125 1 0.30375 0.701115 0.665863
1125 2 0.252003 0.573555 0.612401
186 2 0.347733 0.733267 0.653779
923 1 0.287962 0.627497 0.615655
733 1 0.292895 0.524687 0.60902
927 1 0.335394 0.702781 0.634226
363 1 0.372959 0.603672 0.635739
129 2 0.346427 0.649337 0.623331
425 1 0.0026664 0.804715 0.658255
710 1 0.228904 0.762342 0.653311
1020 1 0.038387 0.738175 0.636544
937 3 0.233348 0.9333 0.645212
442 2 0.23705 0.902606 0.602498
1167 2 0.222085 0.803695 0.637244
588 1 0.196437 0.770351 0.620665
653 1 0.245289 0.925335 0.622023
80 1 0.175351 0.849963 0.640542
712 1 0.103551 0.792903 0.611219
1067 2 0.164202 0.798452 0.603753
502 2 0.0147919 0.860412 0.647285
802 2 0.0433508 0.776988 0.618571
244 3 0.126718 0.907369 0.639724
324 1 0.168927 0.956468 0.644622
1124 2 0.0675785 0.935246 0.601379
1003 1 0.0711508 0.887127 0.651355
60 1 0.103206 0.916233 0.617822
345 1 0.0198247 0.833565 0.626622
104 5 0.141864 0.788604 0.670986
1046 1 0.00399218 0.928875 0.601312
1014 1 0.407465 0.997138 0.646781
437 5 0.274879 0.682936 0.703656
908 1 0.346432 0.912839 0.642814
1065 2 0.000811306 0.741159 0.654705
132 1 0.337627 0.797718 0.658984
867 5 0.390119 0.845633 0.602584
491 2 0.449006 0.777579 0.641031
1123 1 0.362068 0.969583 0.614508
205 5 0.335651 0.886023 0.678664
177 3 0.342913 0.84541 0.640661
217 1 0.279636 0.827805 0.632122
960 1 0.253873 0.920926 0.665761
1110 2 0.354287 0.97573 0.635796
236 1 0.00393418 0.756149 0.603316
1106 1 0.402172 0.814734 0.632359
338 1 0.489533 0.811286 0.65349
838 1 0.480055 0.967477 0.6248
54 1 0.402415 0.505391 0.639316
285 1 0.705694 0.143751 0.387908
725 1 0.643812 0.054587 0.370825
464 1 0.69898 0.124406 0.348244
1178 2 0.718196 0.200884 0.37908
1092 2 0.696943 0.0643065 0.358227
810 1 0.751947 0.0519652 0.368704
1016 5 0.590489 0.137625 0.369446
321 1 0.538956 0.0401008 0.369906
934 1 0.519138 0.232823 0.367146
1148 2 0.592569 0.0223079 0.380017
947 2 0.873924 0.289585 0.362092
328 2 0.535476 0.219461 0.346282
688 1 0.698342 0.236106 0.336999
299 1 0.910648 0.341082 0.35995
984 1 0.663271 0.222941 0.368797
121 5 0.58069 0.0767224 0.333079
267 1 0.591087 0.252229 0.343158
903 1 0.694557 0.0205713 0.341918
385 5 0.763382 0.0223509 0.31578
757 1 0.53884 0.155499 0.343181
585 3 0.737205 0.181208 0.342124
16 2 0.65177 0.255528 0.350621
1200 1 0.826082 0.402001 0.371776
1096 1 0.735789 0.246635 0.393829
686 2 0.977299 0.475115 0.384116
1026 1 0.761333 0.200589 0.363627
1073 2 0.813128 0.0669168 0.373751
818 2 0.842249 0.113071 0.335769
330 1 0.895966 0.148117 0.333105
540 5 0.884592 0.165151 0.381952
436 1 0.911363 0.446917 0.347163
288 2 0.932781 0.198787 0.337695
1068 1 0.788044 0.147292 0.331887
990 1 0.842049 0.0972078 0.356885
107 1 0.845342 0.0605353 0.324122
389 1 0.972742 0.226606 0.323256
1163 1 0.81874 0.0954181 0.393267
159 2 0.991114 0.0049366 0.393193
261 1 0.898567 0.244263 0.348743
835 1 0.983444 0.00781533 0.339999
921 5 0.926945 0.0265629 0.31305
614 1 0.986942 0.191452 0.350611
1032 1 0.842623 0.00980346 0.376415
799 2 0.754971 0.305983 0.399164
807 5 0.56516 0.420813 0.328799
690 3 0.506395 0.384339 0.361557
555 1 0.745881 0.390795 0.350462
497 5 0.685972 0.399514 0.326396
428 1 0.628994 0.491756 0.330187
940 1 0.603071 0.330638 0.390362
729 1 0.654463 0.32015 0.357496
396 1 0.746162 0.460867 0.382927
254 2 0.682432 0.469375 0.381076
77 1 0.653989 0.412383 0.379465
774 1 0.572915 0.388256 0.360687
1192 2 0.624106 0.361252 0.371921
676 1 0.745817 0.344212 0.381899
341 1 0.933854 0.423944 0.383163
1045 1 0.814879 0.309226 0.358784
477 5 0.947544 0.372701 0.331434
732 2 0.809384 0.448021 0.385711
692 2 0.779771 0.360129 0.364667
745 3 0.896801 0.406803 0.364601
1010 1 0.879019 0.268164 0.382342
21 5 0.8853 0.00391711 0.346236
1019 5 0.535818 0.11567 0.465153
1030 2 0.535947 0.250085 0.485334
146 1 0.572948 0.198018 0.480486
691 1 0.629345 0.119472 0.49185
613 2 0.63371 0.172586 0.479558
179 1 0.686956 0.203963 0.485328
469 5 0.74393 0.0383345 0.4755
783 1 0.668085 0.0507182 0.457922
2 1 0.605727 0.0954816 0.432104
454 1 0.645691 0.149555 0.458709
401 5 0.734321 0.185917 0.457833
128 5 0.587896 0.037855 0.474179
489 1 0.706273 0.109897 0.431129
864 2 0.657243 0.100553 0.444697
795 5 0.673691 0.182387 0.414712
3 2 0.573326 0.0961708 0.413092
30 1 0.511153 0.0929353 0.418828
115 1 0.509795 0.242753 0.40512
770 1 0.509889 0.0152437 0.458654
1133 1 0.548147 0.239491 0.438999
687 1 0.506264 0.0719481 0.494343
840 1 0.591176 0.0450849 0.40091
478 1 0.798076 0.117155 0.473841
682 5 0.950241 0.104808 0.494087
253 5 0.879212 0.0387178 0.466892
622 2 0.842874 0.162823 0.476261
493 5 0.901014 0.114583 0.41227
116 1 0.85568 0.169148 0.497362
199 5 0.843646 0.0139702 0.411225
683 1 0.992969 0.239461 0.456802
782 1 0.825425 0.222216 0.469306
582 5 0.923626 0.204869 0.438231
1179 5 0.984828 0.129179 0.451826
522 5 0.778713 0.171459 0.411282
214 1 0.864255 0.211115 0.4124
829 1 0.89415 0.14242 0.46543
95 5 0.793013 0.0970125 0.442123
394 1 0.973608 0.0360661 0.472872
746 1 0.981121 0.173491 0.414266
1077 3 0.507889 0.496414 0.422132
218 5 0.600465 0.371991 0.471159
1052 5 0.69154 0.302428 0.481943
1168 5 0.708374 0.436503 0.485941
546 2 0.593152 0.282902 0.445189
721 5 0.636568 0.380559 0.414921
593 3 0.659707 0.486268 0.454786
433 1 0.715641 0.326225 0.449802
312 1 0.64125 0.270378 0.431454
1004 2 0.743475 0.382902 0.454855
44 2 0.703702 0.287374 0.432989
57 1 0.621468 0.276786 0.464273
37 1 0.718183 0.323186 0.415536
669 1 0.700134 0.428821 0.456253
767 1 0.600566 0.472131 0.466166
586 1 0.578439 0.345286 0.441781
536 1 0.52559 0.463983 0.440096
863 2 0.536638 0.474068 0.46076
976 5 0.527162 0.361134 0.412145
466 1 0.517409 0.292706 0.470535
693 5 0.771886 0.243102 0.49707
672 1 0.742134 0.237399 0.433082
591 5 0.980512 0.373547 0.41053
1091 1 0.774367 0.37202 0.472941
761 3 0.835955 0.384753 0.481591
476 5 0.912845 0.269244 0.474185
357 2 0.887176 0.485203 0.49554
263 1 0.886135 0.359831 0.470396
1138 1 0.939356 0.443141 0.496834
735 1 0.843397 0.454096 0.483029
636 1 0.873346 0.456045 0.435187
674 1 0.81827 0.437314 0.406483
64 2 0.813686 0.445101 0.428025
131 1 0.918637 0.299837 0.414915
1021 5 0.823888 0.284915 0.443975
1190 5 0.908928 0.375387 0.438807
1035 5 0.925766 0.449288 0.462737
103 1 0.786051 0.398748 0.4393
517 5 0.709728 0.0318519 0.401051
1109 1 0.504746 0.156971 0.521558
880 1 0.504659 0.430684 0.47296
822 5 0.618468 0.243819 0.400494
726 1 0.82329 0.000958046 0.444722
297 1 0.81409 0.305746 0.407077
467 2 0.871525 0.270087 0.404271
713 1 0.645717 0.0193572 0.500956
56 1 0.806352 0.357018 0.59787
1044 1 0.586234 0.00929118 0.570529
250 2 0.537569 0.183855 0.59794
1121 2 0.56515 0.14538 0.527325
164 1 0.590169 0.0886107 0.522041
58 1 0.692207 0.104294 0.519414
901 2 0.642546 0.0807113 0.508351
304 1 0.602079 0.193309 0.519962
1041 1 0.566095 0.144912 0.549746
936 1 0.719471 0.0315959 0.581674
1139 1 0.648091 0.104423 0.567356
53 1 0.697722 0.129993 0.596741
626 2 0.611099 0.156894 0.564404
210 5 0.737099 0.0601702 0.542665
339 2 0.70109 0.0920709 0.579058
43 5 0.696721 0.192429 0.528217
369 1 0.647124 0.207745 0.55804
971 1 0.692664 0.231303 0.586552
830 1 0.585454 0.172965 0.583292
350 2 0.565028 0.0285184 0.589694
1195 1 0.516211 0.0691401 0.587215
190 1 0.779035 0.497499 0.432317
736 5 0.823958 0.0350148 0.595481
200 2 0.987797 0.150759 0.54474
1154 5 0.772321 0.116957 0.504313
515 5 0.864357 0.104863 0.521223
408 1 0.958534 0.125509 0.527572
384 5 0.891317 0.211261 0.524823
224 1 0.805261 0.0364853 0.520455
1198 1 0.813259 0.186674 0.548851
157 1 0.911899 0.039753 0.581688
1005 1 0.845651 0.0890127 0.559262
332 1 0.96525 0.122593 0.562737
1187 2 0.88309 0.0379366 0.562641
809 2 0.981044 0.13723 0.583186
118 2 0.811029 0.141374 0.563983
147 1 0.91462 0.0237217 0.54399
570 1 0.930636 0.162115 0.59374
273 1 0.824325 0.172334 0.582529
228 1 0.750139 0.118549 0.567599
794 1 0.942303 0.00908512 0.508065
677 1 0.972208 0.21285 0.545747
801 1 0.557224 0.493489 0.551034
73 2 0.592526 0.258594 0.522433
152 1 0.623469 0.354319 0.593517
895 1 0.539819 0.389611 0.502887
427 2 0.595362 0.409122 0.512347
509 1 0.586648 0.397923 0.532963
878 1 0.565658 0.27674 0.50324
924 1 0.596409 0.473338 0.508164
235 1 0.648457 0.288455 0.524532
279 1 0.647614 0.380925 0.504105
948 3 0.685446 0.344349 0.520372
431 2 0.681564 0.461798 0.581586
379 2 0.717137 0.462118 0.531289
720 1 0.736327 0.261988 0.553797
890 1 0.724716 0.426347 0.591424
831 2 0.618825 0.362974 0.571869
98 1 0.724515 0.330109 0.578436
203 2 0.682859 0.259611 0.566877
716 1 0.707504 0.399922 0.531612
391 1 0.651332 0.420005 0.568969
351 1 0.635702 0.303744 0.565024
1119 3 0.544674 0.426309 0.548439
1056 1 0.551054 0.268281 0.538782
850 1 0.557957 0.380671 0.567455
1081 5 0.535187 0.278846 0.572501
612 1 0.746882 0.318748 0.514624
899 1 0.72172 0.489008 0.512144
530 3 0.938522 0.48115 0.556277
737 2 0.76324 0.377057 0.583806
430 5 0.795079 0.274799 0.589114
266 1 0.975372 0.47079 0.537682
189 1 0.774138 0.473106 0.54188
529 1 0.818627 0.380076 0.535876
869 3 0.987317 0.279372 0.544033
884 1 0.829408 0.279054 0.529452
843 5 0.917852 0.380381 0.522928
488 1 0.978946 0.297176 0.521291
825 2 0.807037 0.333784 0.520272
133 1 0.838802 0.358451 0.503457
18 1 0.797666 0.405733 0.568267
982 3 0.8044 0.256513 0.549667
1102 1 0.876714 0.457805 0.551943
769 1 0.844465 0.294668 0.564488
291 1 0.900288 0.369688 0.584104
1158 1 0.920351 0.267309 0.586192
623 1 0.979076 0.456739 0.57427
1100 2 0.81889 0.429621 0.549417
946 1 0.945616 0.317575 0.556806
742 2 0.902327 0.314931 0.572116
172 1 0.665803 0.492891 0.540332
944 1 0.639717 0.490716 0.595396
1175 1 0.587449 0.151858 0.403758
957 1 0.934086 0.0188917 0.402367
300 2 0.574905 0.192337 0.649284
1043 1 0.63686 0.196087 0.652724
788 1 0.739555 0.168762 0.647805
354 2 0.700491 0.192501 0.603576
441 2 0.630928 0.0229648 0.621371
748 1 0.67082 0.199952 0.622266
875 1 0.612175 0.0478526 0.60308
1152 1 0.668518 0.0605369 0.633233
122 5 0.712571 0.0754906 0.6598
656 2 0.692498 0.20874 0.643173
539 1 0.538965 0.141877 0.646962
1025 1 0.531401 0.142195 0.614292
240 1 0.553341 0.243679 0.607924
601 1 0.550038 0.24819 0.642416
448 5 0.758369 0.0947599 0.631214
136 5 0.992002 0.328373 0.62046
932 1 0.828997 0.0517632 0.653492
194 5 0.953339 0.079185 0.654667
33 5 0.839743 0.147362 0.645739
383 1 0.950802 0.194521 0.650007
93 1 0.970873 0.231205 0.61705
666 1 0.865265 0.221476 0.610765
975 5 0.915657 0.0643894 0.613561
335 1 0.830056 0.118752 0.612703
292 2 0.821242 0.177621 0.604096
1151 1 0.763797 0.202205 0.60906
1140 2 0.989937 0.189556 0.63305
507 2 0.926453 0.222688 0.601783
162 1 0.985143 0.129793 0.625253
498 1 0.995768 0.411251 0.605257
355 1 0.711024 0.380159 0.646661
223 1 0.642693 0.41896 0.62498
933 2 0.644164 0.357139 0.613636
642 2 0.694014 0.437625 0.637191
527 1 0.705737 0.333982 0.617464
457 2 0.732803 0.327058 0.636844
771 1 0.711288 0.271243 0.644741
1130 2 0.577783 0.436124 0.628705
641 1 0.569944 0.417351 0.648682
463 2 0.552255 0.28695 0.623916
1009 1 0.606571 0.31966 0.625665
193 1 0.545274 0.401839 0.613818
471 1 0.673366 0.492157 0.64683
675 1 0.750707 0.45413 0.626903
600 1 0.563671 0.497011 0.626209
337 5 0.982375 0.413838 0.642906
1182 5 0.921712 0.25548 0.67214
1080 2 0.866149 0.381133 0.601986
972 1 0.842704 0.442078 0.607833
1040 1 0.890637 0.332804 0.654024
963 1 0.843241 0.422187 0.640377
569 1 0.797246 0.330427 0.635066
65 1 0.889994 0.354698 0.61992
1132 2 0.815057 0.464365 0.626375
887 2 0.856199 0.356993 0.638723
481 1 0.578702 0.00181787 0.63315
46 5 0.85072 0.0376456 0.683832
615 1 0.947094 0.00132582 0.637122