ITEM: TIMESTEP
1100
ITEM: NUMBER OF ATOMS
1200
ITEM: BOX BOUNDS pp pp pp
-7.6266250050336382e-02 2.5098596345622489e+01
-7.6266250050336382e-02 2.5098596345622489e+01
-2.5251128845723162e+01 5.0273458941295317e+01
ITEM: ATOMS id type xs ys zs
760 1 0.0752563 0.130416 0.393768
419 1 0.246017 0.165047 0.361179
108 1 0.229994 0.0503491 0.357701
96 1 0.0502409 0.042287 0.379191
635 5 0.231364 0.197769 0.331248
1076 1 0.192516 0.106654 0.333506
1193 1 0.125883 0.0969704 0.362238
580 5 0.160384 0.197807 0.354087
269 2 0.028762 0.231257 0.34207
638 5 0.090072 0.104697 0.328511
390 2 0.0999689 0.080827 0.381427
645 3 0.16697 0.0564223 0.34941
967 1 0.0752979 0.190164 0.33827
542 1 0.149096 0.0554534 0.392779
804 1 0.244087 0.00765749 0.39028
1149 3 0.251946 0.112332 0.347797
787 1 0.42009 0.243135 0.356707
314 1 0.435689 0.193805 0.390207
590 2 0.486037 0.23534 0.387516
559 1 0.433785 0.0479165 0.357998
973 5 0.442293 0.1146 0.334707
468 2 0.390568 0.154005 0.396918
1174 1 0.310509 0.114575 0.336052
1037 1 0.37371 0.110207 0.381421
432 5 0.34063 0.17841 0.358667
196 2 0.388727 0.0502512 0.373121
500 5 0.457722 0.0537867 0.314946
465 1 0.333937 0.0181163 0.368126
907 1 0.415023 0.0175665 0.390278
624 3 0.495381 0.0201688 0.354592
309 5 0.251873 0.160421 0.392667
26 5 0.217647 0.421533 0.335551
577 2 0.113308 0.478974 0.362701
82 1 0.211103 0.286787 0.349353
1173 1 0.0672463 0.318761 0.392791
40 5 0.126842 0.335553 0.337292
813 1 0.0511169 0.468372 0.370162
403 5 0.147793 0.349184 0.376879
1071 1 0.246738 0.347511 0.374819
834 1 0.144517 0.4846 0.382383
418 1 0.0448067 0.288869 0.346621
915 1 0.134617 0.42749 0.351792
904 5 0.0173145 0.356282 0.367947
456 1 0.484563 0.34063 0.349963
917 2 0.438831 0.491599 0.391198
935 2 0.45349 0.286497 0.344502
893 5 0.332512 0.271461 0.395676
460 1 0.346807 0.45242 0.347199
1053 1 0.299637 0.349904 0.346094
565 5 0.29545 0.440293 0.37476
346 2 0.262656 0.310754 0.358727
703 2 0.397029 0.477961 0.355233
241 1 0.459079 0.293571 0.386351
373 1 0.393973 0.471378 0.37712
1171 1 0.452852 0.448988 0.349563
409 1 0.478396 0.395479 0.380776
1159 2 0.432435 0.352671 0.385327
412 2 0.35541 0.320234 0.352747
628 1 0.396518 0.315854 0.336507
660 1 0.31399 0.273186 0.361442
151 1 0.386294 0.348806 0.369263
807 5 0.446009 0.382642 0.322291
686 2 0.000591129 0.492711 0.379483
159 2 0.0019384 0.019367 0.391815
690 3 0.498963 0.406114 0.358906
929 1 0.497531 0.247734 0.336533
397 2 0.0341667 0.230042 0.475651
885 5 0.168429 0.201126 0.479998
1185 5 0.103768 0.0801199 0.489399
88 1 0.04482 0.167531 0.480904
28 1 0.205599 0.105962 0.495348
62 5 0.253011 0.0342829 0.445931
953 5 0.0999586 0.0319551 0.427943
1060 5 0.131546 0.21774 0.444708
137 5 0.180742 0.116823 0.441272
377 2 0.0611115 0.161012 0.412317
537 1 0.222615 0.0679325 0.418033
15 5 0.0819089 0.0928612 0.459735
353 1 0.0788606 0.223388 0.408212
1024 1 0.0893233 0.132851 0.429342
1070 2 0.197269 0.0286876 0.403557
20 1 0.158959 0.018067 0.452726
364 1 0.00250333 0.370002 0.495061
394 1 0.000440563 0.0423211 0.475906
472 1 0.245647 0.0209881 0.478942
75 1 0.307845 0.092102 0.497748
375 2 0.25639 0.0818143 0.484561
206 1 0.258422 0.217424 0.492628
407 1 0.483363 0.207133 0.497246
247 5 0.408611 0.0992857 0.474337
378 2 0.458476 0.0217839 0.447067
516 1 0.453544 0.0860574 0.445908
406 1 0.467504 0.186783 0.433748
91 1 0.412913 0.122452 0.41392
920 2 0.458517 0.123942 0.42885
211 5 0.309666 0.0613786 0.410894
858 1 0.267342 0.178316 0.439768
443 2 0.306777 0.138049 0.450215
14 1 0.325669 0.0833745 0.440464
322 5 0.357252 0.235219 0.432733
968 1 0.268148 0.118397 0.467431
72 1 0.357254 0.172504 0.456795
32 5 0.287836 0.26303 0.458722
922 5 0.360277 0.215582 0.486379
706 1 0.417931 0.491983 0.558547
877 1 0.43971 0.00322061 0.491269
557 2 0.495475 0.241388 0.426699
640 1 0.0426726 0.0041488 0.569311
290 1 0.338381 0.184086 0.403531
1017 1 0.0884649 0.257948 0.468107
1054 5 0.0203764 0.334449 0.462809
69 2 0.216977 0.204622 0.599586
779 5 0.133622 0.452687 0.475917
871 3 0.00109978 0.436761 0.490303
242 1 0.00952037 0.265564 0.491511
754 1 0.0316099 0.451222 0.470672
78 5 0.162445 0.325583 0.476117
34 1 0.246561 0.429021 0.477277
663 1 0.119327 0.376618 0.455538
1079 5 0.232828 0.443465 0.414928
435 1 0.186668 0.301426 0.444698
392 1 0.00450021 0.427235 0.437656
208 1 0.219952 0.492845 0.441618
827 1 0.0933942 0.311932 0.427526
689 2 0.141115 0.346187 0.439062
722 1 0.0933553 0.486455 0.443537
1128 2 0.0330859 0.472924 0.450223
249 2 0.100546 0.286656 0.407655
265 1 0.165327 0.386799 0.424868
741 5 0.0825143 0.442273 0.412381
188 5 0.232828 0.356731 0.40585
382 5 0.250525 0.243273 0.418912
533 1 0.163002 0.283066 0.403726
998 1 0.400477 0.358825 0.403502
102 5 0.491654 0.358592 0.451573
1078 1 0.385364 0.409507 0.471132
564 2 0.376306 0.364685 0.487343
139 5 0.256086 0.333966 0.492698
547 1 0.312311 0.490062 0.498141
561 1 0.353266 0.309404 0.479623
256 2 0.260725 0.487109 0.485482
447 2 0.488065 0.406066 0.492305
4 1 0.438181 0.364262 0.494368
204 1 0.465989 0.462588 0.500745
608 1 0.455618 0.467225 0.409971
696 5 0.420722 0.267688 0.460611
996 1 0.453558 0.289717 0.430494
1039 5 0.247106 0.379331 0.44476
109 1 0.31671 0.330121 0.425116
694 1 0.315801 0.454116 0.447717
494 2 0.359234 0.376762 0.418895
308 1 0.393937 0.399668 0.435758
633 1 0.321618 0.420557 0.409906
410 2 0.378933 0.439786 0.452108
340 1 0.373619 0.471349 0.590174
851 1 0.410323 0.494661 0.452546
784 2 0.431321 0.469192 0.538813
558 5 0.250474 0.321361 0.592946
550 1 0.126218 0.112549 0.519634
574 5 0.0509448 0.164306 0.513269
1155 1 0.120037 0.231337 0.504836
520 2 0.189428 0.116716 0.516161
811 1 0.215921 0.0638824 0.525789
643 1 0.220141 0.169985 0.521212
785 1 0.106092 0.0782359 0.584679
857 1 0.204489 0.0561568 0.580529
303 1 0.481391 0.428985 0.540979
114 2 0.244019 0.0188276 0.591455
1089 1 0.00299684 0.0794737 0.590194
1006 1 0.0445883 0.123285 0.54636
738 3 0.0811536 0.219512 0.589537
647 2 0.162266 0.103725 0.577148
192 1 0.151789 0.116134 0.556648
632 1 0.0273768 0.178869 0.582428
897 2 0.0511826 0.0403102 0.586388
826 3 0.103876 0.0967856 0.540423
680 1 0.0993854 0.0295659 0.543017
548 1 0.183747 0.157178 0.589158
803 5 0.200871 0.195757 0.55204
219 1 0.118937 0.234059 0.56987
10 1 0.266175 0.231154 0.587665
991 5 0.332706 0.116426 0.592546
395 5 0.366468 0.00395764 0.513849
930 2 0.494294 0.0230112 0.501194
487 5 0.498846 0.060112 0.553145
23 1 0.345806 0.085568 0.530694
298 2 0.263629 0.2109 0.51379
101 1 0.321012 0.180674 0.516585
854 2 0.344836 0.121309 0.513414
470 2 0.454564 0.170294 0.512926
413 1 0.427047 0.212131 0.526706
684 1 0.478447 0.0184355 0.522619
833 1 0.405457 0.133006 0.506765
81 1 0.420573 0.0267853 0.589608
961 2 0.448068 0.0848168 0.586381
900 3 0.42654 0.228468 0.589225
945 5 0.485773 0.193771 0.553303
42 1 0.487213 0.195037 0.586576
1161 1 0.431822 0.103903 0.566473
1066 5 0.377136 0.152043 0.548852
596 1 0.28472 0.158707 0.564914
1199 2 0.309588 0.214562 0.572505
220 1 0.305207 0.029019 0.584855
646 5 0.272587 0.0653468 0.553588
837 5 0.37891 0.0287707 0.552453
438 1 0.37041 0.207174 0.578007
1117 5 0.113679 0.359189 0.595504
518 1 0.0612328 0.28092 0.595496
1001 2 0.131138 0.285337 0.515526
92 1 0.0760426 0.319039 0.513066
916 1 0.0371209 0.466694 0.507237
605 1 0.179404 0.315306 0.505687
424 2 0.016267 0.315647 0.505139
798 5 0.20182 0.410409 0.50936
130 5 0.0167925 0.349747 0.576713
317 3 0.227907 0.46443 0.579994
611 1 0.236277 0.33409 0.549822
215 1 0.199828 0.423931 0.565037
367 5 0.0582854 0.401105 0.535249
366 1 0.0528957 0.302922 0.550958
759 1 0.14221 0.337828 0.564048
231 2 0.113016 0.284021 0.556134
153 1 0.142744 0.272161 0.536802
786 2 0.00449895 0.459395 0.590887
127 1 0.152878 0.388906 0.534954
352 1 0.0699785 0.461862 0.587967
174 2 0.186261 0.373626 0.5524
439 5 0.110073 0.468489 0.559543
556 1 0.178671 0.475477 0.596199
952 2 0.425031 0.494728 0.579641
342 5 0.13048 0.488977 0.517202
1099 1 0.404016 0.384859 0.567507
348 5 0.484395 0.335529 0.55378
812 2 0.405446 0.346441 0.584196
1118 1 0.276464 0.430006 0.592772
943 5 0.475464 0.299855 0.516186
1057 1 0.303991 0.258651 0.556173
1194 5 0.319046 0.420697 0.563856
861 1 0.48038 0.47256 0.588277
105 2 0.284938 0.301983 0.541303
1105 1 0.331195 0.345463 0.535691
100 2 0.331203 0.403294 0.523577
977 1 0.266542 0.265696 0.525082
535 1 0.272962 0.427464 0.527562
966 1 0.377588 0.442661 0.530171
1013 1 0.3385 0.382895 0.503555
372 1 0.347072 0.328644 0.591104
227 1 0.43777 0.291287 0.577992
652 5 0.401909 0.279207 0.546379
170 1 0.029306 0.00106358 0.410337
123 1 0.246698 0.164579 0.648085
610 1 0.251992 0.175703 0.615395
1131 5 0.168487 0.0265195 0.669797
142 1 0.166229 0.118928 0.670938
711 5 0.101586 0.0949337 0.61588
700 1 0.146744 0.148986 0.638239
359 1 0.218522 0.0683045 0.644941
1126 1 0.097682 0.196456 0.610596
47 2 0.10844 0.197966 0.63284
94 1 0.0527761 0.197273 0.642968
230 2 0.193438 0.126302 0.651077
1108 5 0.0223855 0.0209651 0.627817
986 1 0.240696 0.03693 0.612464
38 3 0.490216 0.481615 0.610471
162 1 0.0139523 0.11848 0.62727
1094 2 0.265082 0.0462649 0.632229
1072 1 0.445745 0.168853 0.635896
753 1 0.478383 0.0635712 0.636104
209 1 0.415661 0.238856 0.61129
255 1 0.342892 0.197977 0.634059
365 1 0.309164 0.0983557 0.630607
111 2 0.405913 0.21707 0.631463
651 2 0.291245 0.161796 0.632225
415 1 0.425687 0.124217 0.601046
525 2 0.463841 0.367286 0.621235
1042 2 0.49367 0.126501 0.634355
1085 2 0.116286 0.484317 0.601481
337 5 0.00187395 0.455514 0.62896
458 1 0.142463 0.25157 0.637256
51 1 0.151119 0.420889 0.651349
343 1 0.237076 0.301817 0.633428
1114 2 0.179291 0.293378 0.625607
1145 1 0.0621275 0.376654 0.640244
1183 5 0.148413 0.316741 0.666972
870 1 0.153811 0.353677 0.62319
631 1 0.106054 0.447211 0.619137
1069 2 0.117145 0.40294 0.634387
639 5 0.256953 0.460886 0.649095
551 1 0.184472 0.255155 0.607208
136 5 0.00537014 0.320299 0.618862
1000 1 0.332249 0.401416 0.655481
54 1 0.391735 0.483163 0.648383
71 2 0.370747 0.42616 0.641434
999 1 0.415867 0.265974 0.644462
31 5 0.329946 0.307134 0.623488
607 2 0.32079 0.46604 0.602894
202 5 0.312967 0.308624 0.661437
956 1 0.339065 0.438201 0.623003
1150 1 0.418262 0.385452 0.634675
50 5 0.131971 0.486548 0.673089
1111 1 0.0671964 0.00152038 0.603028
1103 2 0.46583 0.00286036 0.642107
194 5 0.0045049 0.0366921 0.672433
344 1 0.43886 0.365171 0.601413
370 1 0.125373 0.535683 0.355056
388 1 0.244361 0.733325 0.385103
1136 1 0.211112 0.746293 0.350613
575 1 0.239504 0.518436 0.394033
993 5 0.010947 0.868049 0.395312
1101 1 0.163598 0.587323 0.385499
763 1 0.0991404 0.767066 0.352927
708 1 0.143374 0.660951 0.356305
85 1 0.0644286 0.607414 0.373113
839 2 0.151106 0.725206 0.354063
572 2 0.176796 0.526999 0.394809
1144 3 0.127326 0.60095 0.364791
422 5 0.0347307 0.71106 0.373751
1135 1 0.114867 0.71293 0.394551
429 5 0.247349 0.62662 0.387456
734 5 0.390142 0.730906 0.381688
919 1 0.415621 0.549924 0.397661
1033 1 0.395403 0.650193 0.343523
1064 1 0.475988 0.597666 0.361856
918 1 0.399716 0.541284 0.350805
715 2 0.411976 0.603772 0.357393
579 1 0.377396 0.611235 0.375378
124 2 0.395925 0.61227 0.396386
668 5 0.297565 0.535774 0.330212
9 1 0.492632 0.509333 0.379891
598 1 0.44203 0.654672 0.397187
1122 1 0.251619 0.938035 0.360883
1088 2 0.210428 0.893017 0.366997
286 1 0.235014 0.835125 0.36859
797 1 0.196682 0.901385 0.389972
89 1 0.154626 0.902161 0.35746
762 1 0.126143 0.999039 0.34956
416 1 0.0469999 0.926259 0.357237
6 5 0.0268341 0.833229 0.357856
519 2 0.106701 0.945771 0.360094
747 1 0.114419 0.95215 0.381469
815 2 0.142257 0.92901 0.399445
1059 1 0.0143061 0.509301 0.399718
404 1 0.327375 0.769315 0.360812
1186 1 0.490036 0.945284 0.358812
697 5 0.37204 0.937415 0.380513
758 1 0.435659 0.871747 0.378446
52 5 0.357843 0.821365 0.384709
176 5 0.408281 0.747617 0.348986
914 1 0.497346 0.94411 0.393814
634 2 0.490293 0.906097 0.376681
84 3 0.258356 0.766376 0.366282
679 1 0.301221 0.894504 0.391716
750 5 0.344391 0.86675 0.357007
793 3 0.266721 0.999963 0.36801
1007 1 0.180697 0.615111 0.480945
12 5 0.0892421 0.751627 0.470451
1157 1 0.0921437 0.650701 0.467267
844 2 0.240144 0.759295 0.488378
531 1 0.224144 0.720243 0.422707
718 1 0.244557 0.622278 0.423955
620 2 0.19807 0.665051 0.430027
135 1 0.18517 0.673568 0.450978
1058 1 0.140718 0.653117 0.420798
670 1 0.150853 0.57545 0.45015
444 1 0.153032 0.5238 0.415172
445 3 0.154826 0.518211 0.437035
994 5 0.0305074 0.570422 0.426691
446 1 0.0400525 0.684359 0.418218
1137 2 0.101575 0.700653 0.415227
1169 2 0.151067 0.629074 0.46268
221 2 0.294618 0.813361 0.580659
11 1 0.17727 0.761622 0.484685
1062 5 0.486996 0.798912 0.400227
1112 3 0.202271 0.57602 0.498213
398 5 0.000852258 0.651895 0.456414
739 5 0.0722559 0.585545 0.402322
45 1 0.207015 0.507719 0.495798
1083 1 0.324879 0.640473 0.476158
213 5 0.362404 0.551292 0.47699
1002 1 0.275145 0.528392 0.468605
1018 2 0.296646 0.649933 0.495343
349 1 0.25519 0.700313 0.49661
1197 2 0.453503 0.746378 0.46962
749 1 0.399127 0.70964 0.468672
554 5 0.438027 0.664168 0.498344
238 1 0.474399 0.559397 0.431728
501 5 0.484524 0.656024 0.428604
499 1 0.417996 0.722606 0.429407
528 1 0.409973 0.612199 0.456637
1049 3 0.447078 0.554169 0.453123
1031 1 0.326509 0.656901 0.44254
789 1 0.308264 0.554911 0.436402
562 1 0.328533 0.739915 0.409381
847 1 0.344929 0.614872 0.4095
911 2 0.307738 0.61295 0.427203
740 2 0.280044 0.507332 0.447745
1038 2 0.36558 0.659185 0.459883
1156 3 0.259711 0.751323 0.406099
637 1 0.166603 0.975182 0.411884
426 1 0.0593443 0.847007 0.47232
1087 1 0.131601 0.952443 0.480131
167 5 0.150229 0.857667 0.483024
374 1 0.240808 0.903317 0.488129
705 2 0.239027 0.90491 0.444236
603 1 0.249047 0.908432 0.422812
475 5 0.0352749 0.910363 0.42498
823 5 0.182143 0.772477 0.448667
180 5 0.106347 0.849404 0.440292
35 1 0.113314 0.752666 0.427111
594 1 0.17754 0.915218 0.450172
988 2 0.13485 0.959382 0.45841
257 3 0.00704136 0.998891 0.493555
892 1 0.0779596 0.953468 0.449737
997 5 0.0284402 0.773597 0.446687
334 1 0.115229 0.885245 0.411405
434 1 0.25962 0.807968 0.501083
234 3 0.362342 0.990592 0.589779
592 1 0.369728 0.836238 0.537541
70 2 0.00477942 0.872778 0.478712
853 5 0.143762 0.796433 0.400219
252 1 0.000245954 0.930698 0.487521
183 2 0.250483 0.881014 0.403245
941 1 0.344167 0.961476 0.483169
764 1 0.341153 0.840209 0.470225
881 1 0.272895 0.763093 0.469811
1015 3 0.275637 0.959306 0.478937
294 1 0.43653 0.911788 0.474975
293 1 0.462345 0.762918 0.490279
985 5 0.326559 0.514048 0.403287
874 2 0.405671 0.966681 0.476731
140 1 0.3963 0.817475 0.416517
699 1 0.398844 0.92725 0.411026
958 3 0.407008 0.8595 0.463399
325 1 0.442541 0.802976 0.460145
277 1 0.481242 0.87195 0.424627
898 3 0.445516 0.975231 0.405884
356 2 0.417686 0.876925 0.422948
1034 1 0.390556 0.884132 0.442313
226 1 0.273774 0.945854 0.455582
138 1 0.332637 0.781226 0.440937
513 2 0.301199 0.806449 0.457276
980 5 0.349409 0.976875 0.435634
144 2 0.369983 0.762906 0.424332
942 1 0.255004 0.844128 0.44934
386 1 0.243647 0.818958 0.406765
361 5 0.00345743 0.613213 0.547191
1189 5 0.142195 0.69704 0.506676
549 1 0.0735329 0.675911 0.527754
1147 5 0.0809234 0.615904 0.497884
665 2 0.0292567 0.720692 0.527881
657 1 0.165225 0.586126 0.516281
618 5 0.256804 0.526799 0.528129
655 5 0.212495 0.654613 0.533937
120 1 0.232361 0.611896 0.562891
910 5 0.114022 0.601612 0.543025
182 1 0.144755 0.551323 0.567906
39 1 0.0572366 0.525253 0.535911
616 1 0.0277127 0.633074 0.576902
506 1 0.140255 0.642354 0.581102
1142 5 0.036746 0.536905 0.566187
820 2 0.0792197 0.661454 0.5851
751 1 0.164661 0.725617 0.554159
145 1 0.0800527 0.721628 0.575676
1061 2 0.183226 0.596835 0.576171
7 1 0.0227608 0.747583 0.508387
544 1 0.213162 0.584673 0.595143
685 2 0.0120297 0.510539 0.520737
307 2 0.367869 0.700148 0.525581
678 1 0.344664 0.66758 0.508963
568 5 0.355883 0.558146 0.516703
168 1 0.267309 0.595485 0.501096
978 2 0.466109 0.525341 0.506302
283 1 0.401414 0.749868 0.516388
387 1 0.429608 0.568536 0.496951
581 1 0.416069 0.671801 0.536627
902 1 0.414466 0.666539 0.570341
181 1 0.425225 0.559222 0.582642
1170 2 0.442143 0.698978 0.554649
541 5 0.408086 0.585994 0.550381
281 1 0.31857 0.576065 0.545255
79 1 0.318961 0.716778 0.538422
1 1 0.326244 0.599514 0.578099
143 1 0.26045 0.517213 0.569707
1028 3 0.389145 0.62022 0.584904
534 2 0.285804 0.576178 0.563464
886 5 0.280187 0.701188 0.565816
268 1 0.447923 0.522421 0.527319
1023 1 0.289217 0.865016 0.594365
862 1 0.00614567 0.97727 0.53698
949 5 0.00756416 0.889825 0.520542
490 5 0.121199 0.82949 0.530438
1050 1 0.098111 0.899553 0.508969
474 1 0.170177 0.980898 0.51263
576 2 0.120044 0.95765 0.501428
246 1 0.212288 0.872795 0.52242
702 1 0.0425617 0.767637 0.54246
841 5 0.239754 0.780996 0.534393
1116 1 0.233768 0.953794 0.591257
1141 1 0.223772 0.977632 0.54663
262 1 0.164211 0.763074 0.588078
727 3 0.0812877 0.878901 0.56732
860 2 0.0595744 0.983406 0.549116
451 5 0.158357 0.972118 0.570165
405 1 0.0953266 0.913016 0.586418
765 1 0.120732 0.821387 0.564722
399 5 0.189874 0.884648 0.552537
376 1 0.0887807 0.925809 0.550062
482 1 0.0187883 0.854299 0.564264
567 2 0.133124 0.759769 0.569472
816 1 0.253348 0.821568 0.564821
545 2 0.218863 0.99732 0.525948
1113 1 0.494189 0.807656 0.521528
1011 2 0.254806 0.872371 0.506372
1184 1 0.314225 0.88513 0.513132
495 1 0.39744 0.932884 0.529069
1093 2 0.372587 0.877568 0.520417
41 1 0.271412 0.9816 0.515344
511 1 0.410254 0.846819 0.505976
83 2 0.443863 0.792434 0.507948
368 2 0.398837 0.817048 0.555858
414 1 0.46215 0.968093 0.5567
719 3 0.461356 0.957307 0.533758
1095 1 0.451696 0.770557 0.591328
315 1 0.430967 0.762423 0.553304
484 1 0.438682 0.866332 0.561217
450 2 0.435993 0.924849 0.570559
360 1 0.451273 0.915851 0.591494
731 1 0.354055 0.813219 0.57157
905 1 0.373311 0.946123 0.57269
1115 1 0.284811 0.757101 0.589846
310 5 0.303699 0.926049 0.551831
296 1 0.0702805 0.998599 0.502802
479 1 0.457645 0.998906 0.427058
86 1 0.409934 0.999191 0.457999
913 5 0.10993 0.698693 0.666919
68 1 0.230189 0.554917 0.629145
852 2 0.23982 0.696565 0.662271
99 2 0.492963 0.932313 0.606772
329 1 0.223229 0.64987 0.649136
950 2 0.195945 0.592015 0.643602
710 1 0.227682 0.754169 0.653027
1166 1 0.200309 0.688254 0.679756
627 1 0.0746572 0.601332 0.664234
819 1 0.0803576 0.651157 0.606637
1020 1 0.0475682 0.752646 0.637938
609 2 0.0893297 0.597689 0.619133
704 1 0.190305 0.558824 0.661309
891 1 0.100705 0.546224 0.606334
455 1 0.140205 0.604796 0.631937
955 1 0.0389651 0.582544 0.631736
393 5 0.143377 0.616752 0.688089
906 2 0.0321375 0.565971 0.652735
1104 1 0.044476 0.503755 0.654908
931 1 0.300296 0.996703 0.639796
459 1 0.0193941 0.726642 0.670308
236 1 0.00110489 0.753155 0.603948
437 5 0.255834 0.582715 0.683104
483 1 0.442036 0.518704 0.621055
1008 1 0.418444 0.724004 0.653285
1191 1 0.477555 0.737192 0.623742
1074 2 0.416899 0.538402 0.641033
106 1 0.465477 0.562329 0.651587
119 1 0.391427 0.640808 0.606993
125 1 0.305886 0.695008 0.666497
1125 2 0.256593 0.570731 0.610781
186 2 0.354331 0.72395 0.653771
923 1 0.293976 0.622313 0.615426
733 1 0.297892 0.524082 0.606558
927 1 0.344004 0.689202 0.63488
363 1 0.373036 0.586616 0.636994
129 2 0.353591 0.633657 0.62385
17 2 0.496075 0.739265 0.602738
1180 5 0.371581 0.740343 0.603067
521 1 0.189221 0.85631 0.602673
1046 1 0.00308488 0.918979 0.601261
937 3 0.225977 0.907774 0.644478
442 2 0.239822 0.89876 0.603228
1167 2 0.220316 0.795812 0.636931
588 1 0.186256 0.76472 0.621497
653 1 0.24907 0.91863 0.622774
80 1 0.182396 0.848237 0.641277
712 1 0.0968236 0.801171 0.61116
1067 2 0.15933 0.796683 0.605902
502 2 0.00590907 0.85997 0.645869
802 2 0.0399803 0.780232 0.61835
244 3 0.123408 0.895287 0.642118
324 1 0.167108 0.944642 0.650433
1124 2 0.0648297 0.935444 0.604159
1003 1 0.0672905 0.871464 0.651393
60 1 0.0924126 0.918917 0.622824
345 1 0.00753118 0.834401 0.62575
1123 1 0.359219 0.976012 0.612674
205 5 0.362224 0.907002 0.674666
104 5 0.26587 0.81693 0.679768
177 3 0.336952 0.834783 0.636899
217 1 0.274386 0.819073 0.629388
960 1 0.270933 0.890975 0.659829
1110 2 0.354282 0.968454 0.634174
1014 1 0.403206 0.995248 0.646215
1106 1 0.394028 0.798654 0.628124
338 1 0.478846 0.81261 0.649836
838 1 0.471036 0.962829 0.624163
491 2 0.444111 0.770433 0.638683
132 1 0.335323 0.785192 0.656602
908 1 0.359638 0.901803 0.636757
867 5 0.389661 0.848473 0.60051
440 5 0.222222 0.699753 0.600071
285 1 0.708505 0.162922 0.394081
725 1 0.642827 0.0546879 0.373671
464 1 0.695665 0.12538 0.354185
1178 2 0.722552 0.212468 0.381599
1092 2 0.693017 0.0626804 0.360614
810 1 0.748238 0.049666 0.371419
1016 5 0.588413 0.140091 0.374747
321 1 0.537454 0.0430367 0.371902
934 1 0.520029 0.22277 0.370187
1148 2 0.590306 0.0220351 0.382109
757 1 0.52485 0.147241 0.343979
328 2 0.533058 0.207492 0.349803
688 1 0.700354 0.228327 0.340181
845 1 0.523997 0.0331226 0.334391
984 1 0.669771 0.239089 0.372247
121 5 0.591722 0.0913778 0.334205
267 1 0.596474 0.218328 0.348277
799 2 0.765419 0.320101 0.399102
903 1 0.692209 0.0258038 0.343971
385 5 0.741728 0.0625784 0.318796
1026 1 0.768382 0.197932 0.366545
614 1 0.981944 0.209723 0.358239
1073 2 0.813294 0.0568455 0.377331
818 2 0.848108 0.113855 0.341463
330 1 0.899711 0.157924 0.342853
540 5 0.862206 0.17114 0.377618
957 1 0.953989 0.0622671 0.394306
992 5 0.969427 0.0903206 0.360019
288 2 0.935661 0.212296 0.342982
1068 1 0.792694 0.144357 0.335975
990 1 0.840677 0.088321 0.36099
107 1 0.863393 0.0671786 0.328181
585 3 0.738337 0.175856 0.346687
389 1 0.981308 0.223582 0.327508
341 1 0.945418 0.452303 0.381534
1163 1 0.811405 0.0857197 0.395917
1045 1 0.816417 0.327435 0.354012
1146 5 0.994972 0.234151 0.39119
555 1 0.738291 0.397644 0.347731
497 5 0.667089 0.397676 0.326614
216 1 0.649667 0.492303 0.360672
940 1 0.581574 0.322671 0.382667
729 1 0.633575 0.315499 0.353564
16 2 0.646639 0.25101 0.352322
396 1 0.738756 0.464561 0.378791
254 2 0.673764 0.456028 0.376755
77 1 0.657451 0.39388 0.375926
774 1 0.56892 0.401783 0.359197
1192 2 0.609515 0.357721 0.367244
428 1 0.607583 0.469182 0.328254
477 5 0.963788 0.39181 0.330333
649 1 0.648308 0.48177 0.394876
732 2 0.801924 0.461625 0.382742
676 1 0.76244 0.355152 0.381195
692 2 0.780836 0.376069 0.361278
745 3 0.900523 0.429118 0.363442
1010 1 0.86921 0.275873 0.380277
1096 1 0.749554 0.260461 0.39271
436 1 0.92169 0.465283 0.345208
299 1 0.908934 0.359491 0.362192
1200 1 0.828653 0.422367 0.368111
261 1 0.898372 0.264199 0.346225
947 2 0.873778 0.305658 0.360533
1019 5 0.542324 0.0951279 0.464864
1030 2 0.532547 0.244383 0.487435
146 1 0.57347 0.20341 0.478026
691 1 0.622309 0.119746 0.489152
713 1 0.642999 0.020604 0.498438
613 2 0.632797 0.174214 0.478298
179 1 0.675173 0.212427 0.486944
469 5 0.735712 0.0516212 0.484961
783 1 0.683321 0.0573061 0.460539
2 1 0.607721 0.0766624 0.435426
454 1 0.647713 0.154646 0.457275
401 5 0.74054 0.191406 0.46126
128 5 0.602253 0.00175482 0.464616
489 1 0.708626 0.109844 0.432141
864 2 0.661659 0.0991593 0.446259
795 5 0.67763 0.196377 0.420502
3 2 0.575407 0.0865767 0.416206
30 1 0.513868 0.101356 0.419739
115 1 0.51408 0.230468 0.406767
517 5 0.724085 0.0668235 0.403747
840 1 0.584969 0.0374079 0.402973
687 1 0.509413 0.0815062 0.493833
1175 1 0.600405 0.138424 0.40624
770 1 0.512239 0.00655726 0.457344
693 5 0.765212 0.238097 0.497871
478 1 0.791209 0.128507 0.477521
682 5 0.952074 0.11674 0.494886
253 5 0.894096 0.0322839 0.474355
622 2 0.843562 0.165445 0.476454
493 5 0.897309 0.125496 0.411205
116 1 0.865183 0.171199 0.496936
199 5 0.880234 0.0253368 0.411956
683 1 0.990033 0.228285 0.459713
782 1 0.830013 0.225408 0.469623
582 5 0.92303 0.189107 0.437661
1179 5 0.985866 0.118294 0.457276
522 5 0.781052 0.17357 0.415522
214 1 0.861212 0.219363 0.41099
829 1 0.887353 0.137444 0.464361
95 5 0.808611 0.0892933 0.448264
672 1 0.751414 0.257836 0.433251
737 2 0.768943 0.387819 0.587226
218 5 0.614831 0.392311 0.467878
1052 5 0.686311 0.312483 0.484778
1168 5 0.725549 0.423271 0.491429
546 2 0.597805 0.29501 0.444221
721 5 0.638346 0.389848 0.410145
593 3 0.665597 0.493164 0.453147
433 1 0.713291 0.346604 0.448826
312 1 0.651155 0.278805 0.432275
1004 2 0.751184 0.397061 0.454216
44 2 0.709528 0.305276 0.43212
57 1 0.620471 0.297421 0.463954
37 1 0.720395 0.336817 0.413728
669 1 0.710588 0.444555 0.459823
767 1 0.602219 0.482991 0.463832
586 1 0.579771 0.355943 0.438552
536 1 0.521733 0.465582 0.440012
1133 1 0.550977 0.256044 0.438016
863 2 0.537543 0.476417 0.460681
591 5 0.996277 0.366597 0.41108
976 5 0.50887 0.367933 0.411112
880 1 0.512847 0.426671 0.473059
297 1 0.823895 0.315811 0.408785
1091 1 0.786053 0.376278 0.471251
761 3 0.845117 0.372079 0.483998
476 5 0.911613 0.262585 0.486752
357 2 0.875593 0.482599 0.494209
263 1 0.898699 0.363051 0.470967
1138 1 0.938428 0.466686 0.493366
735 1 0.83786 0.431744 0.495996
636 1 0.865674 0.484294 0.429566
674 1 0.812051 0.443877 0.402519
64 2 0.807355 0.465714 0.422966
131 1 0.932316 0.295738 0.409288
1021 5 0.844579 0.296693 0.449919
1190 5 0.943429 0.455108 0.414629
1035 5 0.915133 0.447768 0.455136
103 1 0.785567 0.422276 0.437882
604 5 0.997404 0.259352 0.42859
467 2 0.873776 0.277328 0.402406
944 1 0.635057 0.489007 0.597895
1121 2 0.563938 0.137342 0.53005
1109 1 0.502878 0.145658 0.52467
164 1 0.593577 0.0847988 0.52103
58 1 0.695135 0.101503 0.513759
901 2 0.639414 0.0805663 0.50536
304 1 0.597996 0.190301 0.523414
1041 1 0.565096 0.133159 0.551353
936 1 0.717768 0.0398573 0.592097
1139 1 0.648734 0.094559 0.569539
53 1 0.688742 0.144167 0.596348
626 2 0.61049 0.146924 0.566493
210 5 0.711475 0.0669396 0.542912
339 2 0.70048 0.0947094 0.582724
43 5 0.703909 0.208009 0.532145
369 1 0.643027 0.199048 0.560625
971 1 0.686923 0.250884 0.590684
830 1 0.582547 0.159555 0.584877
350 2 0.55899 0.0267797 0.588373
250 2 0.537734 0.177615 0.598774
1195 1 0.514118 0.0738552 0.586191
1044 1 0.577642 0.00398446 0.569299
1154 5 0.7841 0.121551 0.509768
515 5 0.868828 0.107575 0.525062
408 1 0.957165 0.127849 0.526968
384 5 0.908711 0.217723 0.519842
224 1 0.803704 0.0325705 0.518094
1198 1 0.815444 0.179088 0.550225
157 1 0.903384 0.042815 0.581268
1005 1 0.835935 0.0795028 0.558496
332 1 0.954543 0.136343 0.56304
1187 2 0.872075 0.0278329 0.563165
809 2 0.9779 0.13509 0.583287
118 2 0.808536 0.133255 0.565587
147 1 0.908149 0.0137524 0.545207
570 1 0.934428 0.162595 0.59695
200 2 0.985522 0.150714 0.5448
273 1 0.8262 0.159702 0.584306
228 1 0.749737 0.111954 0.570955
736 5 0.815569 0.0403222 0.595931
794 1 0.95593 0.0131184 0.509948
677 1 0.991208 0.216009 0.543737
801 1 0.564737 0.491101 0.548593
73 2 0.58949 0.255751 0.523427
152 1 0.631131 0.365777 0.595919
895 1 0.538569 0.385262 0.502988
427 2 0.593384 0.407388 0.511264
509 1 0.585136 0.403037 0.532492
878 1 0.561796 0.269865 0.504682
924 1 0.600131 0.471198 0.505393
235 1 0.6445 0.284888 0.527151
279 1 0.648091 0.374587 0.506645
899 1 0.721837 0.486919 0.512984
948 3 0.683972 0.342263 0.523593
431 2 0.683459 0.472628 0.58461
379 2 0.719418 0.462765 0.532334
720 1 0.746048 0.263487 0.559088
890 1 0.730008 0.435686 0.593887
831 2 0.624187 0.371974 0.57448
98 1 0.739581 0.333781 0.584017
203 2 0.705094 0.285925 0.574064
716 1 0.705798 0.399836 0.534438
391 1 0.657001 0.42781 0.571584
351 1 0.652877 0.320181 0.565737
189 1 0.774214 0.471298 0.543354
1119 3 0.545508 0.425017 0.550215
1056 1 0.542845 0.268927 0.537876
850 1 0.563161 0.383267 0.567782
1081 5 0.571482 0.262328 0.570444
172 1 0.671569 0.495494 0.542226
869 3 0.988996 0.284625 0.544809
612 1 0.746769 0.319966 0.516295
884 1 0.825985 0.275793 0.533411
843 5 0.917862 0.390672 0.517066
488 1 0.978137 0.307449 0.522901
825 2 0.808399 0.325707 0.521218
133 1 0.841814 0.328228 0.502407
18 1 0.798864 0.405468 0.569001
982 3 0.812693 0.246414 0.553779
1102 1 0.874736 0.451344 0.550474
769 1 0.850069 0.272314 0.571251
291 1 0.889983 0.359544 0.588042
1158 1 0.930695 0.266781 0.592981
623 1 0.977339 0.454597 0.570914
1100 2 0.814971 0.424329 0.548673
946 1 0.944531 0.310984 0.560933
742 2 0.905859 0.302809 0.577305
266 1 0.967647 0.477125 0.531854
529 1 0.818988 0.3754 0.535204
530 3 0.937731 0.481978 0.552698
726 1 0.851711 0.00290511 0.443644
746 1 0.998701 0.165588 0.416634
466 1 0.507904 0.288116 0.474578
822 5 0.615244 0.253186 0.4008
300 2 0.575064 0.188803 0.651583
1043 1 0.635379 0.192427 0.656855
788 1 0.737262 0.170755 0.649978
354 2 0.701792 0.202508 0.604739
441 2 0.630978 0.0138906 0.619283
748 1 0.678335 0.211774 0.624811
875 1 0.610485 0.0399246 0.601029
1152 1 0.669816 0.0490884 0.631024
122 5 0.73602 0.0843991 0.66163
656 2 0.689625 0.212663 0.646457
539 1 0.535614 0.141215 0.651143
1025 1 0.526915 0.143101 0.616469
240 1 0.553466 0.23614 0.607242
601 1 0.552143 0.238765 0.641262
448 5 0.734081 0.102767 0.621611
615 1 0.931486 0.0134212 0.637755
932 1 0.820553 0.030441 0.659255
56 1 0.807329 0.376561 0.604178
33 5 0.876401 0.104926 0.649929
383 1 0.957517 0.155997 0.654986
93 1 0.964366 0.215029 0.625821
666 1 0.866364 0.21645 0.613996
975 5 0.932189 0.0640691 0.61417
335 1 0.824474 0.117323 0.614679
292 2 0.824177 0.174103 0.605152
1151 1 0.766322 0.206165 0.607433
909 5 0.992996 0.415339 0.659426
507 2 0.928642 0.219068 0.607913
355 1 0.719373 0.391975 0.654366
524 1 0.501211 0.317048 0.624274
223 1 0.615911 0.415236 0.627033
933 2 0.64107 0.36076 0.617018
642 2 0.717664 0.447901 0.644672
527 1 0.700294 0.351582 0.625361
457 2 0.729064 0.331005 0.644602
771 1 0.701364 0.276198 0.651777
1130 2 0.558707 0.440709 0.63062
641 1 0.543813 0.441634 0.650894
463 2 0.55189 0.276446 0.624374
1009 1 0.603928 0.313483 0.623952
193 1 0.505923 0.419787 0.620121
471 1 0.67951 0.491852 0.652383
430 5 0.807962 0.291099 0.611131
1182 5 0.932465 0.239918 0.669232
1080 2 0.870919 0.384129 0.606564
972 1 0.871815 0.442184 0.613301
1040 1 0.886294 0.322104 0.657734
963 1 0.845793 0.414915 0.644261
569 1 0.791497 0.324607 0.642544
65 1 0.885811 0.342856 0.623301
1132 2 0.83206 0.467445 0.629209
887 2 0.854958 0.350757 0.642536
675 1 0.765978 0.460658 0.632339
498 1 0.986417 0.408566 0.602707