ITEM: TIMESTEP
1600
ITEM: NUMBER OF ATOMS
1200
ITEM: BOX BOUNDS pp pp pp
-7.6266250050336382e-02 2.5098596345622489e+01
-7.6266250050336382e-02 2.5098596345622489e+01
-2.5251128845723162e+01 5.0273458941295317e+01
ITEM: ATOMS id type xs ys zs
760 1 0.0656284 0.142597 0.398311
419 1 0.237494 0.14427 0.371674
108 1 0.229207 0.0488642 0.352533
96 1 0.0301221 0.0542953 0.383407
635 5 0.265448 0.218281 0.339785
1076 1 0.182044 0.134672 0.340649
1193 1 0.102496 0.114915 0.364507
580 5 0.151493 0.207987 0.358988
269 2 0.0228097 0.238981 0.328477
638 5 0.160176 0.182212 0.311429
390 2 0.0796096 0.0969963 0.383845
645 3 0.153836 0.0780458 0.35379
967 1 0.071121 0.211691 0.318233
542 1 0.133166 0.0689138 0.392069
804 1 0.233226 0.0207975 0.387143
1149 3 0.246056 0.115524 0.351408
787 1 0.407367 0.234237 0.353234
314 1 0.46432 0.182492 0.386118
590 2 0.484822 0.244031 0.384365
559 1 0.435494 0.0303381 0.355116
973 5 0.402144 0.138545 0.341183
468 2 0.408432 0.152388 0.390603
1174 1 0.304097 0.131674 0.34103
1037 1 0.391376 0.110655 0.37462
432 5 0.327778 0.19005 0.364768
196 2 0.390652 0.0467211 0.3699
762 1 0.121719 0.0149987 0.35609
465 1 0.331876 0.0218904 0.366196
907 1 0.41146 0.0168332 0.388626
290 1 0.361176 0.192838 0.394221
1146 5 0.0524598 0.234846 0.373255
26 5 0.272558 0.444706 0.327503
577 2 0.0986517 0.462355 0.36455
82 1 0.194253 0.302323 0.352869
1173 1 0.0573219 0.314239 0.394953
40 5 0.122294 0.330967 0.332261
813 1 0.0350193 0.45405 0.371727
403 5 0.141543 0.341951 0.378484
1071 1 0.23655 0.346145 0.381935
834 1 0.134702 0.466665 0.383878
418 1 0.0310054 0.299244 0.334835
915 1 0.113328 0.406866 0.353402
904 5 0.0252189 0.355577 0.364324
456 1 0.451461 0.335049 0.352956
917 2 0.437764 0.489701 0.391408
935 2 0.428936 0.284876 0.34201
893 5 0.321713 0.286382 0.392556
460 1 0.355725 0.44419 0.344828
1053 1 0.278841 0.369001 0.349516
565 5 0.297632 0.432448 0.380378
346 2 0.244686 0.326788 0.362251
703 2 0.399898 0.477092 0.355257
241 1 0.437923 0.287245 0.38387
373 1 0.394018 0.471556 0.377282
1171 1 0.458202 0.44959 0.350767
409 1 0.468318 0.389667 0.380446
1159 2 0.418506 0.349396 0.382548
412 2 0.334412 0.335528 0.35172
628 1 0.370369 0.311424 0.335247
660 1 0.294813 0.285207 0.360735
151 1 0.366164 0.353193 0.369501
690 3 0.48907 0.394431 0.358955
793 3 0.264314 0.00594926 0.365845
929 1 0.484655 0.265069 0.331887
397 2 0.0258665 0.225273 0.4721
885 5 0.182979 0.227673 0.478873
1185 5 0.113749 0.134024 0.487904
88 1 0.0213985 0.163381 0.478471
28 1 0.211856 0.121388 0.491216
62 5 0.244142 0.0492668 0.443813
953 5 0.0987454 0.0445203 0.426086
1060 5 0.127031 0.222732 0.439096
137 5 0.178201 0.132896 0.443913
377 2 0.0407456 0.162514 0.417736
537 1 0.208447 0.0897003 0.415398
15 5 0.0681117 0.0942543 0.459745
353 1 0.0405715 0.230318 0.416998
1024 1 0.0823038 0.142024 0.433054
1070 2 0.189056 0.0453643 0.401204
20 1 0.149003 0.0358608 0.454237
86 1 0.407189 0.00727541 0.458503
1054 5 0.0150088 0.353667 0.465721
472 1 0.255673 0.0365772 0.47826
75 1 0.320168 0.108717 0.494314
375 2 0.265719 0.0989429 0.482236
206 1 0.270866 0.225836 0.49292
407 1 0.477803 0.224036 0.495543
247 5 0.425315 0.113503 0.474555
378 2 0.456919 0.0317504 0.446563
516 1 0.452623 0.0979323 0.443647
406 1 0.475209 0.184851 0.425079
91 1 0.417664 0.118826 0.408855
920 2 0.464788 0.122533 0.42398
211 5 0.336484 0.0491337 0.406602
858 1 0.294274 0.196185 0.435921
443 2 0.319966 0.150776 0.448095
14 1 0.328352 0.0969225 0.436587
322 5 0.371527 0.246928 0.426296
968 1 0.276298 0.132291 0.463776
72 1 0.371386 0.176138 0.457964
32 5 0.299048 0.250132 0.462946
922 5 0.373847 0.221939 0.484389
706 1 0.431384 0.481894 0.562495
545 2 0.224413 0.00854068 0.52165
372 1 0.358589 0.315636 0.594404
977 1 0.273567 0.267285 0.525865
257 3 0.00733748 0.00217628 0.493574
1017 1 0.0864381 0.242657 0.467201
535 1 0.273928 0.434268 0.527282
69 2 0.221053 0.211755 0.599041
779 5 0.136351 0.467844 0.472291
227 1 0.454297 0.289011 0.582831
242 1 0.006873 0.264927 0.488022
754 1 0.0267008 0.449859 0.47073
78 5 0.138335 0.317653 0.478311
34 1 0.242601 0.42733 0.4814
663 1 0.113905 0.37958 0.458368
1079 5 0.236874 0.423873 0.411254
435 1 0.178982 0.302612 0.445149
871 3 0.00208917 0.43632 0.492979
208 1 0.215278 0.483623 0.439597
827 1 0.0814939 0.320057 0.430705
689 2 0.133175 0.34771 0.440775
722 1 0.0879669 0.480043 0.442582
1128 2 0.0281898 0.462832 0.448781
249 2 0.077166 0.282766 0.412609
265 1 0.159996 0.381926 0.424346
741 5 0.0849389 0.432957 0.411518
188 5 0.227273 0.316714 0.409673
382 5 0.216679 0.241056 0.422434
533 1 0.134978 0.259091 0.407928
998 1 0.39212 0.362344 0.401609
102 5 0.478675 0.358628 0.451082
1078 1 0.382529 0.410739 0.470828
564 2 0.377257 0.367517 0.487281
139 5 0.265398 0.327222 0.492559
547 1 0.310955 0.494813 0.497559
561 1 0.352644 0.313026 0.479594
256 2 0.256971 0.488473 0.486246
447 2 0.487119 0.403489 0.493539
4 1 0.43894 0.362347 0.494454
204 1 0.464912 0.459073 0.502826
608 1 0.45882 0.46305 0.4097
696 5 0.45405 0.246696 0.459096
996 1 0.45601 0.285709 0.430047
1039 5 0.242347 0.381589 0.449393
109 1 0.314537 0.348202 0.423544
694 1 0.314282 0.457091 0.449492
494 2 0.360925 0.391184 0.418186
308 1 0.394457 0.40365 0.436432
633 1 0.334466 0.445768 0.4123
410 2 0.377267 0.444334 0.452716
340 1 0.370615 0.46952 0.590472
966 1 0.382466 0.442948 0.532918
784 2 0.438147 0.460869 0.542381
309 5 0.266776 0.15319 0.407515
550 1 0.141915 0.109465 0.518333
574 5 0.0484808 0.108946 0.507633
1155 1 0.12254 0.211344 0.503788
520 2 0.201081 0.121066 0.512139
811 1 0.23833 0.0730965 0.520576
643 1 0.220475 0.178347 0.520057
785 1 0.118595 0.081124 0.582675
857 1 0.215566 0.0620725 0.58365
303 1 0.482902 0.414093 0.541359
114 2 0.249831 0.0175123 0.59402
1089 1 0.0181997 0.0739637 0.591225
1006 1 0.0596028 0.121114 0.544106
738 3 0.0796684 0.223077 0.591187
647 2 0.174388 0.109752 0.577532
192 1 0.166819 0.119624 0.556039
632 1 0.0290331 0.174343 0.583971
897 2 0.0679467 0.0411114 0.584623
826 3 0.12137 0.0935849 0.540149
680 1 0.118586 0.0248026 0.542915
548 1 0.191997 0.164061 0.587643
803 5 0.198257 0.206747 0.551752
219 1 0.114142 0.232436 0.570649
10 1 0.268665 0.234097 0.586411
991 5 0.325583 0.119868 0.595692
100 2 0.331331 0.410685 0.524545
479 1 0.452909 0.00752934 0.426725
296 1 0.0686111 0.0201675 0.50248
23 1 0.361819 0.0842336 0.52708
298 2 0.270097 0.215748 0.514049
101 1 0.321898 0.177804 0.51904
854 2 0.355478 0.12748 0.511616
470 2 0.457277 0.191339 0.513032
413 1 0.430291 0.23235 0.527289
684 1 0.483654 0.0181968 0.5218
833 1 0.411463 0.152329 0.505265
81 1 0.419209 0.0204213 0.588041
961 2 0.443624 0.0809604 0.585993
900 3 0.433007 0.227599 0.591513
945 5 0.475281 0.184508 0.555337
42 1 0.483057 0.185654 0.586113
1161 1 0.425762 0.100067 0.566344
1066 5 0.381298 0.155891 0.545704
596 1 0.295673 0.165198 0.56376
1199 2 0.3159 0.22161 0.572585
220 1 0.310279 0.0225029 0.587741
646 5 0.278168 0.0733629 0.554241
837 5 0.368648 0.0359064 0.553377
438 1 0.376308 0.214268 0.579979
1117 5 0.114865 0.360188 0.593197
518 1 0.0582787 0.283576 0.596287
1001 2 0.129442 0.263951 0.515049
92 1 0.0756072 0.300999 0.513618
916 1 0.0372089 0.470755 0.509237
605 1 0.177734 0.299233 0.508361
424 2 0.0169749 0.307545 0.503911
798 5 0.191084 0.395861 0.50712
1013 1 0.344237 0.385718 0.50504
317 3 0.219925 0.462521 0.583117
611 1 0.234528 0.336569 0.550051
215 1 0.191298 0.416708 0.568756
367 5 0.0673177 0.402817 0.531487
366 1 0.0455732 0.293165 0.551267
759 1 0.13641 0.331269 0.560759
231 2 0.105851 0.275447 0.554725
153 1 0.131973 0.253245 0.536492
395 5 0.356051 0.00441818 0.513416
127 1 0.154585 0.402713 0.53651
352 1 0.0680561 0.456997 0.593642
174 2 0.181687 0.372272 0.553113
439 5 0.11254 0.463883 0.560918
364 1 0.00763074 0.368061 0.498058
652 5 0.406561 0.297405 0.550934
392 1 0.00329136 0.415128 0.437454
1099 1 0.411829 0.371468 0.570209
952 2 0.427021 0.495003 0.583558
812 2 0.41632 0.338735 0.588699
1118 1 0.2751 0.423258 0.592597
943 5 0.480047 0.311251 0.524039
1057 1 0.309992 0.268635 0.557942
1194 5 0.320471 0.400271 0.567118
861 1 0.481508 0.477746 0.594063
105 2 0.286879 0.30617 0.54233
1105 1 0.3279 0.351168 0.535661
786 2 0.00129256 0.451041 0.592279
487 5 0.497454 0.0585577 0.552198
976 5 0.494501 0.373628 0.419433
130 5 0.00302705 0.335896 0.577513
640 1 0.0531472 0.00808393 0.566845
930 2 0.496079 0.0230079 0.500482
1059 1 0.00395707 0.486093 0.40281
877 1 0.440123 0.00135043 0.491587
556 1 0.171762 0.469683 0.599428
348 5 0.496128 0.328679 0.559533
123 1 0.244803 0.16805 0.65069
610 1 0.245413 0.182434 0.616807
1131 5 0.155821 0.0205719 0.672345
142 1 0.182404 0.110657 0.675163
711 5 0.125521 0.0779638 0.619116
700 1 0.147314 0.147818 0.6429
359 1 0.217092 0.0709919 0.645974
1126 1 0.102383 0.190494 0.612142
47 2 0.111798 0.195526 0.633848
94 1 0.0532848 0.202186 0.643139
230 2 0.194643 0.125538 0.655236
1108 5 0.0137536 0.0293497 0.618021
986 1 0.244609 0.0316315 0.615021
524 1 0.490948 0.306652 0.62377
162 1 0.0337563 0.112719 0.630095
1094 2 0.268032 0.0473045 0.634753
1072 1 0.44614 0.163302 0.637568
753 1 0.474572 0.054 0.634632
209 1 0.418932 0.23377 0.613411
255 1 0.34351 0.197078 0.634216
365 1 0.301043 0.103034 0.631041
111 2 0.406408 0.213489 0.634092
651 2 0.286544 0.166081 0.633552
415 1 0.420836 0.109826 0.603714
525 2 0.468476 0.368461 0.624087
1042 2 0.491391 0.116953 0.632494
1085 2 0.115045 0.481413 0.607225
344 1 0.441801 0.374864 0.604752
458 1 0.140908 0.253507 0.636561
51 1 0.149387 0.402114 0.656109
343 1 0.237962 0.299064 0.634358
1114 2 0.17918 0.292257 0.62586
1145 1 0.054256 0.37467 0.641282
1183 5 0.214765 0.325727 0.667703
870 1 0.14915 0.350545 0.624779
631 1 0.113731 0.450476 0.626231
1069 2 0.114422 0.396053 0.637994
639 5 0.250478 0.453649 0.660555
551 1 0.188298 0.262405 0.606542
909 5 0.00163051 0.323875 0.66009
1000 1 0.337273 0.405221 0.657296
54 1 0.393294 0.487273 0.64279
71 2 0.372049 0.425556 0.64116
999 1 0.410814 0.259801 0.648388
31 5 0.34115 0.306462 0.629878
607 2 0.318406 0.459017 0.603188
202 5 0.363434 0.310538 0.670304
956 1 0.335048 0.430888 0.621675
1150 1 0.421435 0.387316 0.637823
50 5 0.115919 0.492797 0.663538
558 5 0.267029 0.337824 0.603015
136 5 0.00423137 0.312801 0.622392
931 1 0.304522 0.00187657 0.642908
1140 2 0.00248841 0.167406 0.634895
370 1 0.110582 0.51986 0.357301
388 1 0.230808 0.742486 0.389633
1136 1 0.174004 0.734273 0.359293
575 1 0.231131 0.501964 0.389621
634 2 0.489451 0.90097 0.378886
1101 1 0.152196 0.572822 0.385413
763 1 0.0663936 0.735195 0.353781
708 1 0.119456 0.642449 0.360297
85 1 0.0428337 0.579189 0.375785
839 2 0.115703 0.708181 0.36371
572 2 0.169598 0.515674 0.393249
1144 3 0.107932 0.580807 0.36718
914 1 0.491604 0.937304 0.396397
1135 1 0.101529 0.714044 0.386186
429 5 0.187715 0.656737 0.383988
734 5 0.305812 0.686762 0.379275
919 1 0.418457 0.550252 0.397607
1033 1 0.416088 0.645565 0.341951
1064 1 0.481047 0.588123 0.362059
918 1 0.39946 0.541418 0.351549
715 2 0.418853 0.601666 0.357578
579 1 0.389201 0.623378 0.375158
124 2 0.404708 0.613575 0.396503
668 5 0.457296 0.6822 0.314205
84 3 0.235858 0.769102 0.367326
9 1 0.493722 0.506909 0.381248
1122 1 0.248718 0.940226 0.362381
1088 2 0.205434 0.899704 0.370715
286 1 0.219964 0.838911 0.368116
797 1 0.193838 0.910021 0.392206
89 1 0.15261 0.910576 0.358716
750 5 0.293838 0.851963 0.343345
416 1 0.0513609 0.940529 0.35136
6 5 0.029564 0.837522 0.355652
519 2 0.105074 0.95474 0.361077
747 1 0.102634 0.952215 0.38324
500 5 0.464785 0.946106 0.331243
679 1 0.288921 0.880446 0.392075
404 1 0.299373 0.761884 0.358998
1186 1 0.496413 0.940661 0.362281
697 5 0.357242 0.938915 0.379969
758 1 0.431839 0.870643 0.377763
52 5 0.353286 0.815232 0.382534
176 5 0.395712 0.74086 0.356898
1007 1 0.175402 0.614921 0.480027
12 5 0.0856741 0.727277 0.480439
1157 1 0.0868016 0.63423 0.464311
844 2 0.233569 0.755904 0.485918
531 1 0.225976 0.732683 0.426826
718 1 0.251918 0.635267 0.420951
620 2 0.200852 0.672437 0.427059
135 1 0.181231 0.65719 0.447105
1058 1 0.151643 0.673997 0.413588
670 1 0.146266 0.563633 0.449472
444 1 0.152104 0.514146 0.413805
445 3 0.149897 0.505716 0.436798
994 5 0.0469572 0.593156 0.438238
446 1 0.0454474 0.660669 0.409788
1137 2 0.0948006 0.699782 0.407185
1169 2 0.147645 0.617969 0.460292
221 2 0.285193 0.82018 0.580313
11 1 0.170675 0.747786 0.488364
985 5 0.311647 0.528311 0.40154
1112 3 0.19889 0.584909 0.499406
310 5 0.285423 0.904972 0.543302
739 5 0.0623103 0.565364 0.410386
45 1 0.204532 0.515681 0.495649
1083 1 0.331848 0.638419 0.477045
213 5 0.369051 0.547846 0.47946
1002 1 0.261665 0.52234 0.467157
1018 2 0.299518 0.65141 0.495421
349 1 0.266719 0.705931 0.492842
1197 2 0.447281 0.751492 0.467554
749 1 0.395269 0.711787 0.46677
554 5 0.444115 0.647527 0.493261
238 1 0.480364 0.554015 0.432366
501 5 0.472278 0.664057 0.432434
499 1 0.414837 0.73836 0.426699
528 1 0.420236 0.609727 0.459976
1049 3 0.453935 0.549689 0.45334
1031 1 0.338504 0.650147 0.442034
789 1 0.294942 0.555312 0.436027
562 1 0.323262 0.745617 0.408837
847 1 0.348737 0.616109 0.408532
911 2 0.310107 0.613251 0.426617
740 2 0.271622 0.50413 0.44655
1038 2 0.370876 0.654374 0.460325
1156 3 0.25657 0.76697 0.40972
637 1 0.160022 0.990938 0.409832
426 1 0.0732592 0.85255 0.471771
1087 1 0.130062 0.967522 0.480276
167 5 0.152352 0.871182 0.486199
374 1 0.243385 0.909199 0.484575
705 2 0.235257 0.920719 0.444626
603 1 0.244317 0.927161 0.42305
475 5 0.0294436 0.910471 0.429272
823 5 0.171535 0.790432 0.445965
180 5 0.0959301 0.857044 0.441134
35 1 0.0899562 0.751466 0.421231
594 1 0.173853 0.931337 0.450612
988 2 0.131545 0.974586 0.458969
252 1 0.00853373 0.933948 0.488541
892 1 0.0741174 0.962052 0.450952
997 5 0.0335095 0.776926 0.447641
334 1 0.112449 0.890173 0.41294
434 1 0.246877 0.809407 0.497408
234 3 0.362227 0.981211 0.591639
592 1 0.363063 0.843112 0.536608
70 2 0.0190886 0.874288 0.480929
474 1 0.167604 0.998467 0.512177
815 2 0.134538 0.937211 0.400848
183 2 0.241591 0.887797 0.405926
941 1 0.344415 0.961327 0.482685
764 1 0.338086 0.836017 0.471402
881 1 0.25116 0.770467 0.465633
1015 3 0.275706 0.969353 0.47938
294 1 0.432471 0.915333 0.472491
293 1 0.458666 0.764977 0.488325
1111 1 0.0902595 0.995346 0.598383
874 2 0.404149 0.970347 0.476859
140 1 0.382396 0.827984 0.41486
699 1 0.391434 0.932616 0.412022
958 3 0.397215 0.864676 0.462781
325 1 0.435277 0.808397 0.458208
277 1 0.468787 0.871315 0.428173
898 3 0.441323 0.980844 0.405733
356 2 0.40635 0.881814 0.424425
1034 1 0.377251 0.892321 0.443288
226 1 0.274233 0.960701 0.455158
138 1 0.330801 0.786293 0.441745
513 2 0.293587 0.813487 0.456479
980 5 0.341564 0.988658 0.43719
144 2 0.362206 0.770864 0.423182
942 1 0.256431 0.860904 0.448733
386 1 0.228279 0.830099 0.413863
318 1 0.0069519 0.829515 0.496543
1189 5 0.134624 0.694491 0.514406
549 1 0.0622428 0.670127 0.530699
1147 5 0.0670599 0.60675 0.504262
665 2 0.0135391 0.714094 0.529468
657 1 0.170111 0.594429 0.519507
618 5 0.25347 0.519016 0.523844
655 5 0.249353 0.641669 0.536182
120 1 0.224797 0.608408 0.568209
910 5 0.128003 0.628144 0.550507
182 1 0.141102 0.546015 0.574184
39 1 0.0598033 0.520537 0.538472
616 1 0.0309235 0.63352 0.575041
506 1 0.13921 0.643179 0.584743
1142 5 0.0341836 0.528315 0.569998
820 2 0.0762304 0.663786 0.58629
751 1 0.168035 0.717132 0.556586
145 1 0.0804296 0.721653 0.576944
1061 2 0.17795 0.592612 0.58115
7 1 0.00238811 0.727096 0.508987
305 1 0.495984 0.716115 0.459522
1180 5 0.368554 0.734621 0.594565
307 2 0.367216 0.701131 0.525231
678 1 0.340302 0.659271 0.511797
568 5 0.340098 0.554172 0.518053
168 1 0.262716 0.602309 0.50086
978 2 0.471547 0.51961 0.509688
283 1 0.400234 0.747415 0.515327
387 1 0.426423 0.559569 0.502552
581 1 0.414356 0.670002 0.537072
902 1 0.411 0.664441 0.570998
181 1 0.421183 0.559716 0.587018
1170 2 0.436859 0.700133 0.555466
541 5 0.393 0.578415 0.547782
281 1 0.299265 0.566621 0.546864
79 1 0.318946 0.716626 0.537914
1 1 0.324766 0.598796 0.579105
143 1 0.254371 0.514165 0.573348
1028 3 0.389268 0.622031 0.586299
534 2 0.278014 0.570658 0.567384
886 5 0.256877 0.709331 0.564491
268 1 0.461517 0.51388 0.531424
1023 1 0.278 0.868449 0.594337
862 1 0.0173533 0.974907 0.536034
949 5 0.0118031 0.888217 0.521177
490 5 0.117409 0.846552 0.528528
1050 1 0.0986617 0.921023 0.510811
170 1 0.0285209 0.986006 0.410775
576 2 0.115961 0.976878 0.501493
246 1 0.2168 0.881426 0.5199
702 1 0.0264648 0.769259 0.539904
841 5 0.252259 0.78823 0.532895
1116 1 0.225107 0.955465 0.592636
1141 1 0.232689 0.988262 0.541949
262 1 0.159764 0.767937 0.58801
727 3 0.0812361 0.871263 0.565209
860 2 0.0705346 0.982921 0.547491
451 5 0.172113 0.98131 0.566696
405 1 0.0949564 0.895822 0.586544
765 1 0.117688 0.815493 0.560755
399 5 0.185154 0.889691 0.549466
376 1 0.0973071 0.926311 0.552201
482 1 0.0179752 0.856489 0.558083
567 2 0.132025 0.755296 0.569064
816 1 0.246685 0.829387 0.563518
1115 1 0.277681 0.765445 0.590581
1113 1 0.491006 0.806732 0.521844
1011 2 0.255265 0.874137 0.502498
1184 1 0.316455 0.879539 0.509258
495 1 0.400837 0.933928 0.526345
1093 2 0.374052 0.879741 0.518969
41 1 0.269814 0.980835 0.509437
511 1 0.418028 0.851187 0.506626
83 2 0.444198 0.792489 0.50695
368 2 0.389126 0.819964 0.555305
414 1 0.45262 0.967121 0.555142
719 3 0.46381 0.958665 0.532456
1095 1 0.456101 0.761045 0.584343
315 1 0.413366 0.760511 0.552357
484 1 0.4327 0.865785 0.560077
450 2 0.429407 0.924051 0.568958
360 1 0.45241 0.915416 0.589508
731 1 0.344241 0.81921 0.570528
905 1 0.365987 0.935828 0.573582
598 1 0.456361 0.644568 0.4021
361 5 0.0106067 0.603178 0.543844
685 2 0.0105139 0.506623 0.525028
544 1 0.208211 0.579028 0.599227
1062 5 0.468463 0.804109 0.405691
342 5 0.14602 0.50312 0.525956
853 5 0.142025 0.800793 0.40076
851 1 0.406562 0.501385 0.453898
913 5 0.108623 0.673691 0.660634
68 1 0.22528 0.554162 0.633774
852 2 0.24757 0.694981 0.664279
908 1 0.351209 0.900608 0.642336
329 1 0.23133 0.652018 0.648725
950 2 0.194117 0.599233 0.644544
710 1 0.224147 0.751175 0.654834
1166 1 0.221564 0.678845 0.682577
627 1 0.0555923 0.586549 0.674429
819 1 0.0666775 0.65214 0.6077
1020 1 0.0290542 0.74546 0.639213
609 2 0.0888301 0.603387 0.621022
704 1 0.165354 0.573279 0.661283
891 1 0.0946579 0.545345 0.61146
455 1 0.147578 0.61796 0.630043
955 1 0.0484873 0.602435 0.638213
393 5 0.136056 0.625043 0.690712
906 2 0.0248926 0.571711 0.656427
1104 1 0.0268079 0.508567 0.651729
99 2 0.494223 0.928087 0.606378
282 5 0.487956 0.641478 0.620278
459 1 0.0375554 0.719956 0.673067
437 5 0.310938 0.652734 0.697756
483 1 0.460328 0.543003 0.622373
1008 1 0.419771 0.719697 0.64803
1191 1 0.4774 0.748945 0.617963
1074 2 0.420722 0.54623 0.6409
106 1 0.452171 0.561137 0.658378
119 1 0.384888 0.648945 0.608568
125 1 0.311446 0.697295 0.667816
1125 2 0.252652 0.563107 0.614378
186 2 0.355399 0.722449 0.653675
923 1 0.288522 0.615991 0.618107
733 1 0.291188 0.51431 0.609295
927 1 0.334452 0.692337 0.636416
363 1 0.37622 0.592524 0.636607
129 2 0.345411 0.63701 0.625021
521 1 0.180704 0.855606 0.605283
132 1 0.349837 0.786807 0.658497
867 5 0.37623 0.849083 0.600928
1103 2 0.46777 0.992862 0.641288
937 3 0.223189 0.908608 0.645878
442 2 0.227968 0.898599 0.603544
1167 2 0.22165 0.789883 0.638114
588 1 0.187082 0.7633 0.622431
653 1 0.244133 0.916788 0.623219
80 1 0.185034 0.846623 0.642019
712 1 0.0925566 0.793219 0.614344
1067 2 0.153018 0.795366 0.6072
502 2 0.00949003 0.866015 0.65106
802 2 0.0315508 0.784773 0.621618
244 3 0.1286 0.896658 0.640533
324 1 0.165345 0.94664 0.647909
1124 2 0.0745682 0.932875 0.602098
1003 1 0.0711471 0.881555 0.654506
60 1 0.0991555 0.915701 0.620683
345 1 0.0081386 0.840776 0.630237
1123 1 0.357307 0.965791 0.614881
205 5 0.354084 0.896066 0.678158
104 5 0.190054 0.83716 0.679497
177 3 0.343042 0.833042 0.641353
217 1 0.282989 0.8045 0.632969
960 1 0.259851 0.898637 0.664949
1110 2 0.355591 0.962095 0.636906
1014 1 0.407305 0.983853 0.648536
1106 1 0.392791 0.800708 0.628014
338 1 0.487485 0.800473 0.647846
838 1 0.466271 0.954628 0.623853
491 2 0.44651 0.767774 0.63575
1046 1 0.00804718 0.931889 0.600759
440 5 0.236559 0.691944 0.604255
285 1 0.70125 0.152101 0.392551
725 1 0.636893 0.0749033 0.366305
464 1 0.692028 0.12534 0.340822
1178 2 0.703773 0.196627 0.377932
1092 2 0.690341 0.0709779 0.353163
810 1 0.742965 0.0739248 0.365402
1016 5 0.538955 0.13553 0.370055
321 1 0.538171 0.0389635 0.373969
934 1 0.519446 0.246473 0.365159
1148 2 0.601422 0.0370972 0.379171
757 1 0.518391 0.170529 0.340589
328 2 0.531996 0.232287 0.343781
688 1 0.702935 0.239896 0.33683
845 1 0.537466 0.0141831 0.337692
984 1 0.651908 0.212321 0.365056
121 5 0.565882 0.0955109 0.327237
267 1 0.592175 0.243708 0.33819
799 2 0.743137 0.313342 0.391359
903 1 0.688623 0.0156526 0.342308
807 5 0.576185 0.415395 0.323044
1026 1 0.749228 0.187495 0.364152
840 1 0.605115 0.0594898 0.399728
1073 2 0.805207 0.0735951 0.370894
818 2 0.84521 0.122732 0.335367
330 1 0.903596 0.153326 0.333126
540 5 0.838746 0.18167 0.374528
957 1 0.937183 0.0233762 0.39866
992 5 0.924061 0.0676342 0.369222
288 2 0.938512 0.206478 0.334904
1068 1 0.79702 0.16409 0.332381
990 1 0.841474 0.106859 0.356488
107 1 0.846407 0.0698378 0.323683
585 3 0.736512 0.18073 0.340541
389 1 0.96885 0.231652 0.317079
341 1 0.94396 0.420283 0.38291
1163 1 0.811823 0.0979794 0.39098
1045 1 0.821293 0.308523 0.354109
159 2 0.996959 0.00360607 0.393028
555 1 0.774823 0.399802 0.341845
497 5 0.729019 0.453321 0.317249
1032 1 0.82203 0.00929082 0.369473
940 1 0.605481 0.338711 0.38667
729 1 0.640591 0.316624 0.355439
16 2 0.648337 0.257507 0.348174
396 1 0.741908 0.456792 0.380145
254 2 0.675515 0.464214 0.3799
77 1 0.647531 0.414731 0.370333
774 1 0.556703 0.378267 0.356879
1192 2 0.611042 0.361015 0.367186
428 1 0.635855 0.484515 0.330422
477 5 0.958657 0.385774 0.324542
822 5 0.612734 0.249796 0.394872
732 2 0.80676 0.446394 0.384783
676 1 0.748635 0.349087 0.373422
692 2 0.791683 0.363262 0.35859
745 3 0.905379 0.405841 0.363263
1010 1 0.883299 0.265447 0.379999
1096 1 0.713283 0.256984 0.387846
436 1 0.925831 0.44769 0.347396
299 1 0.91678 0.339347 0.359907
1200 1 0.835414 0.400149 0.371363
261 1 0.90457 0.248159 0.344983
947 2 0.881705 0.28936 0.359604
686 2 0.984575 0.471186 0.382718
835 1 0.964771 0.0105337 0.347169
921 5 0.946765 0.0634031 0.321386
649 1 0.656497 0.478932 0.399266
297 1 0.804922 0.301902 0.396754
624 3 0.503352 0.00937345 0.357161
614 1 0.999522 0.203211 0.345616
1019 5 0.531813 0.127141 0.465116
1030 2 0.534978 0.255155 0.489108
146 1 0.570943 0.209248 0.480638
691 1 0.626895 0.135207 0.492414
713 1 0.644065 0.0277967 0.497799
613 2 0.634559 0.189605 0.480164
179 1 0.683639 0.223392 0.488039
469 5 0.717912 0.0602141 0.480106
783 1 0.661218 0.0642117 0.455006
2 1 0.611716 0.115768 0.430931
454 1 0.648106 0.168309 0.460117
401 5 0.742937 0.205187 0.458747
128 5 0.594915 0.0104667 0.463712
489 1 0.714612 0.134324 0.437697
864 2 0.657163 0.122074 0.44545
795 5 0.660166 0.19706 0.420317
3 2 0.579992 0.107726 0.412268
30 1 0.518016 0.0935919 0.417018
115 1 0.514011 0.260069 0.403813
250 2 0.535351 0.172189 0.598377
1077 3 0.502425 0.494382 0.423602
736 5 0.809996 0.0342466 0.594001
1175 1 0.581109 0.164467 0.401646
770 1 0.507723 0.0210273 0.457993
693 5 0.773654 0.237473 0.495546
478 1 0.784998 0.13222 0.476385
682 5 0.953831 0.110049 0.491942
253 5 0.903646 0.0360845 0.469636
622 2 0.842735 0.162808 0.47625
493 5 0.902137 0.106773 0.411077
116 1 0.863394 0.166745 0.496555
199 5 0.835696 0.0224106 0.410475
683 1 0.984796 0.234164 0.455771
782 1 0.832443 0.22259 0.469326
582 5 0.907743 0.197495 0.437533
1179 5 0.973903 0.109382 0.451994
522 5 0.776471 0.156504 0.413146
214 1 0.856245 0.215391 0.408789
829 1 0.88247 0.127424 0.464527
95 5 0.782395 0.0786955 0.450631
672 1 0.750989 0.252011 0.427744
737 2 0.766268 0.385909 0.585741
218 5 0.593177 0.364263 0.474171
1052 5 0.700714 0.310942 0.480037
1168 5 0.707692 0.431802 0.493192
546 2 0.597965 0.285912 0.443167
721 5 0.599293 0.395007 0.412154
593 3 0.6611 0.480347 0.455685
433 1 0.727677 0.339608 0.444404
312 1 0.648132 0.282251 0.429508
1004 2 0.755455 0.389932 0.455226
44 2 0.710477 0.301143 0.42832
57 1 0.625879 0.28033 0.461815
37 1 0.716114 0.336083 0.409864
669 1 0.707911 0.430301 0.461998
767 1 0.59885 0.466157 0.464568
586 1 0.570496 0.343701 0.440017
536 1 0.520615 0.453858 0.440476
1133 1 0.553095 0.243125 0.436643
863 2 0.535098 0.46706 0.460942
591 5 0.99363 0.37348 0.408677
1044 1 0.576258 0.00956998 0.569546
880 1 0.504406 0.422215 0.473148
687 1 0.505071 0.0833951 0.493082
1091 1 0.789434 0.36053 0.470709
761 3 0.849898 0.36476 0.483737
476 5 0.916714 0.260082 0.480988
357 2 0.877346 0.484687 0.495043
263 1 0.909395 0.357352 0.471076
1138 1 0.938318 0.460414 0.495408
735 1 0.841621 0.430324 0.492091
636 1 0.863115 0.488288 0.430737
674 1 0.812029 0.431665 0.405154
64 2 0.807489 0.457435 0.425338
131 1 0.903221 0.313891 0.412597
1021 5 0.843589 0.273637 0.441724
1190 5 0.920376 0.407555 0.423153
1035 5 0.925259 0.458191 0.457832
103 1 0.795249 0.4128 0.440667
557 2 0.501412 0.243791 0.424197
467 2 0.865112 0.274803 0.400698
604 5 0.973462 0.314418 0.436355
1121 2 0.566924 0.144046 0.528472
801 1 0.568696 0.491255 0.550704
164 1 0.588917 0.0876355 0.52084
58 1 0.68903 0.105899 0.518196
901 2 0.638578 0.0874585 0.5063
304 1 0.603256 0.197734 0.524866
1041 1 0.572489 0.133015 0.550054
936 1 0.721894 0.0322867 0.590524
1139 1 0.656276 0.0969674 0.570755
53 1 0.701019 0.134294 0.599375
626 2 0.613614 0.142193 0.566547
210 5 0.726019 0.0651361 0.54088
339 2 0.707739 0.0907121 0.583583
43 5 0.696894 0.203893 0.537645
369 1 0.644767 0.198072 0.562269
971 1 0.691774 0.242815 0.592058
830 1 0.579728 0.155193 0.584361
350 2 0.555287 0.0305703 0.589141
828 5 0.672928 0.00303048 0.429725
1195 1 0.508261 0.0734925 0.586392
394 1 0.996666 0.0374796 0.474073
1154 5 0.776207 0.133349 0.509542
515 5 0.875331 0.0982737 0.520023
408 1 0.966393 0.115878 0.525822
384 5 0.90102 0.222752 0.520109
224 1 0.798947 0.0444396 0.520132
1198 1 0.806335 0.176774 0.551243
157 1 0.916717 0.0351558 0.581717
1005 1 0.857319 0.0893869 0.559704
332 1 0.97172 0.115229 0.562483
1187 2 0.890094 0.0337312 0.562151
809 2 0.986514 0.124039 0.583733
118 2 0.815733 0.134165 0.566355
147 1 0.92465 0.0112245 0.545398
570 1 0.938283 0.145671 0.595246
200 2 0.998188 0.135847 0.543846
273 1 0.830545 0.163865 0.585415
228 1 0.757696 0.10855 0.571197
190 1 0.758245 0.497417 0.426643
794 1 0.958612 0.00887071 0.509193
677 1 0.989742 0.201021 0.54325
1109 1 0.507456 0.162806 0.522764
73 2 0.594744 0.263747 0.52594
152 1 0.621899 0.361675 0.59714
895 1 0.542611 0.393713 0.503782
427 2 0.601111 0.40577 0.512209
509 1 0.59408 0.396748 0.533102
878 1 0.561746 0.278057 0.507683
924 1 0.615487 0.471818 0.508989
235 1 0.648813 0.295833 0.528737
279 1 0.645362 0.368812 0.502468
56 1 0.814599 0.369408 0.598581
948 3 0.690096 0.346239 0.519873
431 2 0.691413 0.475923 0.58511
379 2 0.720315 0.469032 0.530733
720 1 0.738308 0.264764 0.560204
890 1 0.735254 0.437042 0.594366
831 2 0.621766 0.376741 0.575636
98 1 0.72695 0.334735 0.58355
203 2 0.694908 0.285313 0.574793
716 1 0.705187 0.406806 0.529579
391 1 0.653969 0.433929 0.574521
351 1 0.645087 0.320095 0.56809
189 1 0.778746 0.470519 0.540638
1119 3 0.549087 0.422487 0.548812
1056 1 0.551598 0.271226 0.541579
850 1 0.56332 0.39102 0.568402
1081 5 0.56744 0.263289 0.572635
172 1 0.673403 0.498084 0.541943
869 3 0.988059 0.269452 0.541882
612 1 0.751627 0.323147 0.514359
884 1 0.826694 0.274126 0.532756
843 5 0.929323 0.383782 0.51814
488 1 0.976601 0.294698 0.520432
825 2 0.814394 0.327175 0.52067
133 1 0.853248 0.327736 0.503575
18 1 0.784828 0.402328 0.56562
982 3 0.803561 0.247645 0.553325
1102 1 0.873952 0.4481 0.555339
769 1 0.842831 0.275796 0.570976
291 1 0.902229 0.354907 0.583293
1158 1 0.928594 0.252001 0.589045
623 1 0.984497 0.446096 0.571099
1100 2 0.819472 0.42569 0.547902
946 1 0.934008 0.291962 0.555941
742 2 0.903495 0.294228 0.574535
266 1 0.966854 0.468921 0.535074
529 1 0.823637 0.379873 0.532592
530 3 0.937189 0.475177 0.555983
726 1 0.848729 0.00873183 0.442108
746 1 0.981638 0.141733 0.419945
466 1 0.515993 0.30144 0.47615
517 5 0.732722 0.049251 0.400332
300 2 0.572869 0.175782 0.649876
1043 1 0.631232 0.190636 0.655596
788 1 0.733327 0.164122 0.649784
354 2 0.707799 0.196449 0.605866
441 2 0.623766 0.0127664 0.620639
748 1 0.674443 0.204839 0.624451
875 1 0.605652 0.0389811 0.602176
1152 1 0.654724 0.05266 0.633292
122 5 0.725195 0.074403 0.65685
656 2 0.686589 0.206391 0.645627
539 1 0.534053 0.127128 0.64908
1025 1 0.525071 0.1361 0.615745
240 1 0.55362 0.230246 0.606848
601 1 0.545977 0.226957 0.640693
448 5 0.739492 0.0845878 0.628866
615 1 0.94738 0.0113136 0.638829
932 1 0.811674 0.0443225 0.655017
194 5 0.968973 0.0693834 0.66142
33 5 0.845858 0.146535 0.643584
383 1 0.952968 0.158023 0.648913
93 1 0.98195 0.204851 0.618065
666 1 0.876158 0.201472 0.61401
975 5 0.906587 0.0613812 0.613126
335 1 0.825336 0.10535 0.613829
292 2 0.826424 0.16435 0.606963
1151 1 0.771162 0.197963 0.611321
337 5 0.971262 0.441598 0.634895
507 2 0.934245 0.204709 0.603315
355 1 0.717562 0.379758 0.648956
46 5 0.846671 0.0309173 0.683359
223 1 0.632302 0.408345 0.627492
933 2 0.638635 0.350883 0.6174
642 2 0.725284 0.440892 0.64425
527 1 0.697639 0.328698 0.62098
457 2 0.732138 0.322137 0.640013
771 1 0.712445 0.266823 0.648975
1130 2 0.575893 0.434388 0.633923
641 1 0.580084 0.445863 0.654877
463 2 0.543651 0.268778 0.624469
1009 1 0.59509 0.308623 0.625678
193 1 0.523917 0.398846 0.628751
471 1 0.687042 0.490817 0.648786
430 5 0.797486 0.28031 0.60536
1182 5 0.907159 0.219107 0.671774
1080 2 0.880113 0.375053 0.602371
972 1 0.877552 0.43441 0.613109
1040 1 0.889912 0.287078 0.650475
963 1 0.862825 0.394105 0.644755
569 1 0.797641 0.321706 0.635937
65 1 0.890357 0.335063 0.619085
1132 2 0.84751 0.447737 0.632236
887 2 0.862184 0.332271 0.639168
675 1 0.780227 0.446509 0.633431
498 1 0.974035 0.402187 0.602945